
     Program PWSCF v.6.2 (svn rev. 14038) starts on  2Sep2019 at 13:57:38 

     This program is part of the open-source Quantum ESPRESSO suite
     for quantum simulation of materials; please cite
         "P. Giannozzi et al., J. Phys.:Condens. Matter 21 395502 (2009);
         "P. Giannozzi et al., J. Phys.:Condens. Matter 29 465901 (2017);
          URL http://www.quantum-espresso.org", 
     in publications or presentations arising from this work. More details at
     http://www.quantum-espresso.org/quote

     Parallel version (MPI), running on   192 processors

     MPI processes distributed on     8 nodes
     R & G space division:  proc/nbgrp/npool/nimage =     192
     Waiting for input...
     Reading input from standard input

     Current dimensions of program PWSCF are:
     Max number of different atomic species (ntypx) = 10
     Max number of k-points (npk) =  40000
     Max angular momentum in pseudopotentials (lmaxx) =  3

     IMPORTANT: XC functional enforced from input :
     Exchange-correlation      = VDW-DF2-B86R ( 1  4 26  0 2 0)
     Any further DFT definition will be discarded
     Please, verify this is what you really want


     gamma-point specific algorithms are used

     Subspace diagonalization in iterative solution of the eigenvalue problem:
     one sub-group per band group will be used
     scalapack distributed-memory algorithm (size of sub-group:  9*  9 procs)

 
     Parallelization info
     --------------------
     sticks:   dense  smooth     PW     G-vecs:    dense   smooth      PW
     Min          86      86     20                12714    12714    1560
     Max          88      88     24                12760    12760    1610
     Sum       16847   16847   4215              2446405  2446405  305755
 


     bravais-lattice index     =            0
     lattice parameter (alat)  =      32.8044  a.u.
     unit-cell volume          =   23105.9908 (a.u.)^3
     number of atoms/cell      =          385
     number of atomic types    =            3
     number of electrons       =      1540.00 (up: 771.00, down: 769.00)
     number of Kohn-Sham states=          784
     kinetic-energy cutoff     =      85.0000  Ry
     charge density cutoff     =     340.0000  Ry
     convergence threshold     =      1.0E-08
     mixing beta               =       0.7000
     number of iterations used =            8  plain     mixing
     Exchange-correlation      = VDW-DF2-B86R ( 1  4 26  0 2 0)
     nstep                     =          200


     celldm(1)=  32.804423  celldm(2)=   0.000000  celldm(3)=   0.000000
     celldm(4)=   0.000000  celldm(5)=   0.000000  celldm(6)=   0.000000

     crystal axes: (cart. coord. in units of alat)
               a(1) = (   1.000000   0.000000   0.000000 )  
               a(2) = (   0.000000   0.578082   0.000000 )  
               a(3) = (   0.000000   0.000000   1.132239 )  

     reciprocal axes: (cart. coord. in units 2 pi/alat)
               b(1) = (  1.000000  0.000000  0.000000 )  
               b(2) = (  0.000000  1.729858  0.000000 )  
               b(3) = (  0.000000  0.000000  0.883206 )  


     PseudoPot. # 1 for B  read from file:
     /home/bhang1592/ONCV_PP/B_ONCV_PBE-1.0.upf
     MD5 check sum: 92d09e525537931f299380d890f8246a
     Pseudo is Norm-conserving, Zval =  3.0
     Generated using ONCVPSP code by D. R. Hamann
     Using radial grid of  602 points,  4 beta functions with: 
                l(1) =   0
                l(2) =   0
                l(3) =   1
                l(4) =   1

     PseudoPot. # 2 for N  read from file:
     /home/bhang1592/ONCV_PP/N_ONCV_PBE-1.0.upf
     MD5 check sum: 0b4a9cb774d331b396435f151e4dbb73
     Pseudo is Norm-conserving, Zval =  5.0
     Generated using ONCVPSP code by D. R. Hamann
     Using radial grid of  602 points,  4 beta functions with: 
                l(1) =   0
                l(2) =   0
                l(3) =   1
                l(4) =   1

     PseudoPot. # 3 for C  read from file:
     /home/bhang1592/ONCV_PP/C_ONCV_PBE-1.0.upf
     MD5 check sum: dd1f23aaa54f950ea95e90232430301b
     Pseudo is Norm-conserving, Zval =  4.0
     Generated using ONCVPSP code by D. R. Hamann
     Using radial grid of  602 points,  4 beta functions with: 
                l(1) =   0
                l(2) =   0
                l(3) =   1
                l(4) =   1

     vdW kernel table read from file vdW_kernel_table
     MD5 check sum: e95aac0cfd2fa8df8e4b172527d58701

     atomic species   valence    mass     pseudopotential
        B              3.00    10.81100     B ( 1.00)
        N              5.00    14.00700     N ( 1.00)
        C              4.00    12.01100     C ( 1.00)

     Starting magnetic structure 
     atomic species   magnetization
        B            0.000
        N            0.000
        C            0.000

      2 Sym. Ops. (no inversion) found


                                    s                        frac. trans.

      isym =  1     identity                                     

 cryst.   s( 1) = (     1          0          0      )
                  (     0          1          0      )
                  (     0          0          1      )

 cart.    s( 1) = (  1.0000000  0.0000000  0.0000000 )
                  (  0.0000000  1.0000000  0.0000000 )
                  (  0.0000000  0.0000000  1.0000000 )


      isym =  2     inv. 180 deg rotation - cart. axis [0,1,0]   

 cryst.   s( 2) = (     1          0          0      )
                  (     0         -1          0      )
                  (     0          0          1      )

 cart.    s( 2) = (  1.0000000  0.0000000  0.0000000 )
                  (  0.0000000 -1.0000000  0.0000000 )
                  (  0.0000000  0.0000000  1.0000000 )


   Cartesian axes

     site n.     atom                  positions (alat units)
         1           B   tau(   1) = (   0.2089065   0.0722640   0.0939694  )
         2           B   tau(   2) = (   0.0838478   0.0000000   0.0940583  )
         3           B   tau(   3) = (   0.0416663   0.0722602   0.2830836  )
         4           B   tau(   4) = (   0.1666663   0.0000000   0.2830836  )
         5           B   tau(   5) = (   0.2083337   0.0722602   0.4717425  )
         6           B   tau(   6) = (   0.0833337   0.0000000   0.4717425  )
         7           B   tau(   7) = (   0.0411332   0.0722623   0.6612617  )
         8           B   tau(   8) = (   0.1661619   0.0000000   0.6611721  )
         9           B   tau(   9) = (   0.2085672   0.0722298   0.8492214  )
        10           B   tau(  10) = (   0.0839242   0.0000000   0.8495477  )
        11           B   tau(  11) = (   0.0411233   0.0722573   1.0385526  )
        12           B   tau(  12) = (   0.1661443   0.0000000   1.0383090  )
        13           B   tau(  13) = (   0.2089219   0.2167845   0.0939539  )
        14           B   tau(  14) = (   0.0838550   0.1445293   0.0939785  )
        15           B   tau(  15) = (   0.0416663   0.2167807   0.2830836  )
        16           B   tau(  16) = (   0.1666663   0.1445205   0.2830836  )
        17           B   tau(  17) = (   0.2083337   0.2167807   0.4717425  )
        18           B   tau(  18) = (   0.0833337   0.1445205   0.4717425  )
        19           B   tau(  19) = (   0.0411173   0.2167831   0.6611725  )
        20           B   tau(  20) = (   0.1661549   0.1445238   0.6611381  )
        21           B   tau(  21) = (   0.2086118   0.2167769   0.8491699  )
        22           B   tau(  22) = (   0.0838479   0.1445022   0.8494063  )
        23           B   tau(  23) = (   0.0409155   0.2167987   1.0382548  )
        24           B   tau(  24) = (   0.1660721   0.1445311   1.0382304  )
        25           B   tau(  25) = (   0.2089219   0.3612975   0.0939539  )
        26           B   tau(  26) = (   0.0838620   0.2890410   0.0938981  )
        27           B   tau(  27) = (   0.0416663   0.3613013   0.2830836  )
        28           B   tau(  28) = (   0.1666663   0.2890410   0.2830836  )
        29           B   tau(  29) = (   0.2083337   0.3613013   0.4717425  )
        30           B   tau(  30) = (   0.0833337   0.2890410   0.4717425  )
        31           B   tau(  31) = (   0.0411173   0.3612989   0.6611725  )
        32           B   tau(  32) = (   0.1661486   0.2890410   0.6610983  )
        33           B   tau(  33) = (   0.2086118   0.3613051   0.8491699  )
        34           B   tau(  34) = (   0.0838444   0.2890410   0.8492447  )
        35           B   tau(  35) = (   0.0409155   0.3612833   1.0382548  )
        36           B   tau(  36) = (   0.1660019   0.2890410   1.0380862  )
        37           B   tau(  37) = (   0.2089065   0.5058180   0.0939694  )
        38           B   tau(  38) = (   0.0838550   0.4335527   0.0939785  )
        39           B   tau(  39) = (   0.0416663   0.5058218   0.2830836  )
        40           B   tau(  40) = (   0.1666663   0.4335615   0.2830836  )
        41           B   tau(  41) = (   0.2083337   0.5058217   0.4717425  )
        42           B   tau(  42) = (   0.0833337   0.4335615   0.4717425  )
        43           B   tau(  43) = (   0.0411332   0.5058197   0.6612617  )
        44           B   tau(  44) = (   0.1661549   0.4335582   0.6611381  )
        45           B   tau(  45) = (   0.2085672   0.5058522   0.8492214  )
        46           B   tau(  46) = (   0.0838479   0.4335798   0.8494063  )
        47           B   tau(  47) = (   0.0411233   0.5058247   1.0385526  )
        48           B   tau(  48) = (   0.1660721   0.4335509   1.0382304  )
        49           B   tau(  49) = (   0.4589401   0.0722689   0.0940146  )
        50           B   tau(  50) = (   0.3339369   0.0000000   0.0940383  )
        51           B   tau(  51) = (   0.2916663   0.0722602   0.2830836  )
        52           B   tau(  52) = (   0.4166663   0.0000000   0.2830836  )
        53           B   tau(  53) = (   0.4583337   0.0722602   0.4717425  )
        54           B   tau(  54) = (   0.3333337   0.0000000   0.4717425  )
        55           B   tau(  55) = (   0.2911974   0.0722649   0.6611431  )
        56           B   tau(  56) = (   0.4162349   0.0000000   0.6611839  )
        57           B   tau(  57) = (   0.4582724   0.0721480   0.8492693  )
        58           B   tau(  58) = (   0.3334077   0.0000000   0.8492869  )
        59           B   tau(  59) = (   0.2911923   0.0722480   1.0383869  )
        60           B   tau(  60) = (   0.4164286   0.0000000   1.0383154  )
        61           B   tau(  61) = (   0.4590039   0.2167915   0.0937472  )
        62           B   tau(  62) = (   0.3339579   0.1445260   0.0940279  )
        63           B   tau(  63) = (   0.2916663   0.2167807   0.2830836  )
        64           B   tau(  64) = (   0.4166663   0.1445205   0.2830836  )
        65           B   tau(  65) = (   0.4583337   0.2167807   0.4717425  )
        66           B   tau(  66) = (   0.3333337   0.1445205   0.4717425  )
        67           B   tau(  67) = (   0.2911848   0.2167861   0.6610635  )
        68           B   tau(  68) = (   0.4162257   0.1445421   0.6610118  )
        69           B   tau(  69) = (   0.4576000   0.2162676   0.8487879  )
        70           B   tau(  70) = (   0.3331845   0.1443528   0.8492821  )
        71           B   tau(  71) = (   0.2910838   0.2167769   1.0385268  )
        72           B   tau(  72) = (   0.4162272   0.1445850   1.0390392  )
        73           B   tau(  73) = (   0.4590039   0.3612905   0.0937472  )
        74           B   tau(  74) = (   0.3339807   0.2890410   0.0939925  )
        75           B   tau(  75) = (   0.2916663   0.3613013   0.2830836  )
        76           B   tau(  76) = (   0.4166663   0.2890410   0.2830836  )
        77           B   tau(  77) = (   0.4583337   0.3613013   0.4717425  )
        78           B   tau(  78) = (   0.3333337   0.2890410   0.4717425  )
        79           B   tau(  79) = (   0.2911848   0.3612959   0.6610635  )
        80           B   tau(  80) = (   0.4162120   0.2890410   0.6607918  )
        81           B   tau(  81) = (   0.4576000   0.3618144   0.8487879  )
        82           B   tau(  82) = (   0.3333652   0.2890410   0.8492822  )
        83           B   tau(  83) = (   0.2910838   0.3613051   1.0385268  )
        84           B   tau(  84) = (   0.4161021   0.2890410   1.0398066  )
        85           B   tau(  85) = (   0.4589401   0.5058131   0.0940146  )
        86           B   tau(  86) = (   0.3339579   0.4335559   0.0940279  )
        87           B   tau(  87) = (   0.2916663   0.5058218   0.2830836  )
        88           B   tau(  88) = (   0.4166663   0.4335615   0.2830836  )
        89           B   tau(  89) = (   0.4583337   0.5058218   0.4717425  )
        90           B   tau(  90) = (   0.3333337   0.4335615   0.4717425  )
        91           B   tau(  91) = (   0.2911974   0.5058171   0.6611431  )
        92           B   tau(  92) = (   0.4162257   0.4335399   0.6610118  )
        93           B   tau(  93) = (   0.4582724   0.5059340   0.8492693  )
        94           B   tau(  94) = (   0.3331845   0.4337292   0.8492821  )
        95           B   tau(  95) = (   0.2911923   0.5058340   1.0383869  )
        96           B   tau(  96) = (   0.4162272   0.4334970   1.0390392  )
        97           B   tau(  97) = (   0.7087807   0.0723137   0.0941843  )
        98           B   tau(  98) = (   0.5838657   0.0000000   0.0941166  )
        99           B   tau(  99) = (   0.5416663   0.0722602   0.2830836  )
       100           B   tau( 100) = (   0.6666663   0.0000000   0.2830836  )
       101           B   tau( 101) = (   0.7083338   0.0722602   0.4717425  )
       102           B   tau( 102) = (   0.5833337   0.0000000   0.4717425  )
       103           B   tau( 103) = (   0.5412460   0.0722860   0.6610234  )
       104           B   tau( 104) = (   0.6662278   0.0000000   0.6610669  )
       105           B   tau( 105) = (   0.7087056   0.0715873   0.8498457  )
       106           B   tau( 106) = (   0.5834605   0.0000000   0.8497261  )
       107           B   tau( 107) = (   0.5415666   0.0725732   1.0381883  )
       108           B   tau( 108) = (   0.6664325   0.0000000   1.0408531  )
       109           B   tau( 109) = (   0.7087604   0.2168885   0.0930175  )
       110           B   tau( 110) = (   0.5839029   0.1445731   0.0936447  )
       111           B   tau( 111) = (   0.5416663   0.2167807   0.2830836  )
       112           B   tau( 112) = (   0.6666663   0.1445205   0.2830836  )
       113           B   tau( 113) = (   0.7083338   0.2167807   0.4717425  )
       114           B   tau( 114) = (   0.5833337   0.1445205   0.4717425  )
       115           B   tau( 115) = (   0.5412374   0.2168233   0.6602770  )
       116           B   tau( 116) = (   0.6662121   0.1445608   0.6603846  )
       117           B   tau( 117) = (   0.7104910   0.2136849   0.8444200  )
       118           B   tau( 118) = (   0.5832932   0.1441876   0.8477201  )
       119           B   tau( 119) = (   0.5413226   0.2175278   1.0390124  )
       120           B   tau( 120) = (   0.6668348   0.1449810   1.0394100  )
       121           B   tau( 121) = (   0.7087604   0.3611935   0.0930175  )
       122           B   tau( 122) = (   0.5840033   0.2890410   0.0928743  )
       123           B   tau( 123) = (   0.5416663   0.3613013   0.2830836  )
       124           B   tau( 124) = (   0.6666663   0.2890410   0.2830836  )
       125           B   tau( 125) = (   0.7083338   0.3613013   0.4717425  )
       126           B   tau( 126) = (   0.5833337   0.2890410   0.4717425  )
       127           B   tau( 127) = (   0.5412374   0.3612587   0.6602770  )
       128           B   tau( 128) = (   0.6661734   0.2890410   0.6597250  )
       129           B   tau( 129) = (   0.7104910   0.3643971   0.8444200  )
       130           B   tau( 130) = (   0.5801164   0.2890410   0.8451869  )
       131           B   tau( 131) = (   0.5413226   0.3605542   1.0390124  )
       132           B   tau( 132) = (   0.6661314   0.2890410   1.0134723  )
       133           B   tau( 133) = (   0.7087807   0.5057683   0.0941843  )
       134           B   tau( 134) = (   0.5839029   0.4335089   0.0936447  )
       135           B   tau( 135) = (   0.5416663   0.5058218   0.2830836  )
       136           B   tau( 136) = (   0.6666663   0.4335615   0.2830836  )
       137           B   tau( 137) = (   0.7083338   0.5058218   0.4717425  )
       138           B   tau( 138) = (   0.5833337   0.4335615   0.4717425  )
       139           B   tau( 139) = (   0.5412460   0.5057960   0.6610234  )
       140           B   tau( 140) = (   0.6662121   0.4335212   0.6603846  )
       141           B   tau( 141) = (   0.7087056   0.5064947   0.8498457  )
       142           B   tau( 142) = (   0.5832932   0.4338944   0.8477201  )
       143           B   tau( 143) = (   0.5415666   0.5055088   1.0381883  )
       144           B   tau( 144) = (   0.6668348   0.4331010   1.0394100  )
       145           B   tau( 145) = (   0.9587917   0.0722759   0.0942927  )
       146           B   tau( 146) = (   0.8337576   0.0000000   0.0945704  )
       147           B   tau( 147) = (   0.7916663   0.0722602   0.2830836  )
       148           B   tau( 148) = (   0.9166663   0.0000000   0.2830836  )
       149           B   tau( 149) = (   0.9583337   0.0722602   0.4717425  )
       150           B   tau( 150) = (   0.8333338   0.0000000   0.4717425  )
       151           B   tau( 151) = (   0.7911665   0.0722641   0.6610426  )
       152           B   tau( 152) = (   0.9161357   0.0000000   0.6613254  )
       153           B   tau( 153) = (   0.9591971   0.0720936   0.8501659  )
       154           B   tau( 154) = (   0.8340079   0.0000000   0.8507742  )
       155           B   tau( 155) = (   0.7912618   0.0722270   1.0410515  )
       156           B   tau( 156) = (   0.9161950   0.0000000   1.0394962  )
       157           B   tau( 157) = (   0.9587978   0.2167975   0.0939478  )
       158           B   tau( 158) = (   0.8337495   0.1445811   0.0940482  )
       159           B   tau( 159) = (   0.7916663   0.2167807   0.2830836  )
       160           B   tau( 160) = (   0.9166663   0.1445205   0.2830836  )
       161           B   tau( 161) = (   0.9583337   0.2167807   0.4717425  )
       162           B   tau( 162) = (   0.8333338   0.1445205   0.4717425  )
       163           B   tau( 163) = (   0.7911004   0.2167872   0.6603400  )
       164           B   tau( 164) = (   0.9161104   0.1445227   0.6611554  )
       165           B   tau( 165) = (   0.9590627   0.2167140   0.8494927  )
       166           B   tau( 166) = (   0.8347211   0.1440229   0.8495684  )
       167           B   tau( 167) = (   0.7904361   0.2164999   1.0390915  )
       168           B   tau( 168) = (   0.9160357   0.1444677   1.0395144  )
       169           B   tau( 169) = (   0.9587978   0.3612845   0.0939478  )
       170           B   tau( 170) = (   0.8337403   0.2890410   0.0935856  )
       171           B   tau( 171) = (   0.7916663   0.3613013   0.2830836  )
       172           B   tau( 172) = (   0.9166663   0.2890410   0.2830836  )
       173           B   tau( 173) = (   0.9583337   0.3613013   0.4717425  )
       174           B   tau( 174) = (   0.8333338   0.2890410   0.4717425  )
       175           B   tau( 175) = (   0.7911004   0.3612948   0.6603400  )
       176           B   tau( 176) = (   0.9160839   0.2890410   0.6609849  )
       177           B   tau( 177) = (   0.9590627   0.3613680   0.8494927  )
       178           B   tau( 178) = (   0.8342311   0.2890410   0.8477545  )
       179           B   tau( 179) = (   0.7904361   0.3615821   1.0390915  )
       180           B   tau( 180) = (   0.9155684   0.2890410   1.0379729  )
       181           B   tau( 181) = (   0.9587917   0.5058061   0.0942927  )
       182           B   tau( 182) = (   0.8337495   0.4335009   0.0940482  )
       183           B   tau( 183) = (   0.7916663   0.5058218   0.2830836  )
       184           B   tau( 184) = (   0.9166663   0.4335615   0.2830836  )
       185           B   tau( 185) = (   0.9583337   0.5058218   0.4717425  )
       186           B   tau( 186) = (   0.8333338   0.4335615   0.4717425  )
       187           B   tau( 187) = (   0.7911665   0.5058179   0.6610426  )
       188           B   tau( 188) = (   0.9161104   0.4335593   0.6611554  )
       189           B   tau( 189) = (   0.9591971   0.5059884   0.8501659  )
       190           B   tau( 190) = (   0.8347211   0.4340591   0.8495684  )
       191           B   tau( 191) = (   0.7912618   0.5058549   1.0410515  )
       192           B   tau( 192) = (   0.9160357   0.4336143   1.0395144  )
       193           N   tau( 193) = (   0.2082663   0.0722603   0.2831104  )
       194           N   tau( 194) = (   0.0832664   0.0000000   0.2831105  )
       195           N   tau( 195) = (   0.0422777   0.0722624   0.0942845  )
       196           N   tau( 196) = (   0.1672756   0.0000000   0.0941143  )
       197           N   tau( 197) = (   0.2077690   0.0722608   0.6609939  )
       198           N   tau( 198) = (   0.0827748   0.0000000   0.6610855  )
       199           N   tau( 199) = (   0.0417337   0.0722602   0.4717156  )
       200           N   tau( 200) = (   0.1667336   0.0000000   0.4717156  )
       201           N   tau( 201) = (   0.2077096   0.0722572   1.0383798  )
       202           N   tau( 202) = (   0.0828381   0.0000000   1.0384450  )
       203           N   tau( 203) = (   0.0425267   0.0721859   0.8495424  )
       204           N   tau( 204) = (   0.1671237   0.0000000   0.8491002  )
       205           N   tau( 205) = (   0.2082663   0.2167807   0.2831104  )
       206           N   tau( 206) = (   0.0832664   0.1445205   0.2831104  )
       207           N   tau( 207) = (   0.0422902   0.2167833   0.0941165  )
       208           N   tau( 208) = (   0.1672827   0.1445228   0.0940963  )
       209           N   tau( 209) = (   0.2077562   0.2167809   0.6609344  )
       210           N   tau( 210) = (   0.0827671   0.1445230   0.6610343  )
       211           N   tau( 211) = (   0.0417337   0.2167807   0.4717156  )
       212           N   tau( 212) = (   0.1667336   0.1445205   0.4717156  )
       213           N   tau( 213) = (   0.2076117   0.2167799   1.0381977  )
       214           N   tau( 214) = (   0.0827543   0.1445343   1.0383951  )
       215           N   tau( 215) = (   0.0424453   0.2167658   0.8492082  )
       216           N   tau( 216) = (   0.1671136   0.1445037   0.8490425  )
       217           N   tau( 217) = (   0.2082663   0.3613012   0.2831104  )
       218           N   tau( 218) = (   0.0832664   0.2890410   0.2831104  )
       219           N   tau( 219) = (   0.0422902   0.3612987   0.0941165  )
       220           N   tau( 220) = (   0.1672902   0.2890410   0.0940821  )
       221           N   tau( 221) = (   0.2077562   0.3613011   0.6609344  )
       222           N   tau( 222) = (   0.0827597   0.2890410   0.6609753  )
       223           N   tau( 223) = (   0.0417337   0.3613013   0.4717156  )
       224           N   tau( 224) = (   0.1667336   0.2890410   0.4717156  )
       225           N   tau( 225) = (   0.2076117   0.3613021   1.0381977  )
       226           N   tau( 226) = (   0.0826973   0.2890410   1.0381277  )
       227           N   tau( 227) = (   0.0424453   0.3613162   0.8492082  )
       228           N   tau( 228) = (   0.1671087   0.2890410   0.8489781  )
       229           N   tau( 229) = (   0.2082663   0.5058217   0.2831104  )
       230           N   tau( 230) = (   0.0832664   0.4335615   0.2831104  )
       231           N   tau( 231) = (   0.0422777   0.5058196   0.0942845  )
       232           N   tau( 232) = (   0.1672827   0.4335592   0.0940963  )
       233           N   tau( 233) = (   0.2077690   0.5058212   0.6609939  )
       234           N   tau( 234) = (   0.0827671   0.4335590   0.6610343  )
       235           N   tau( 235) = (   0.0417337   0.5058218   0.4717156  )
       236           N   tau( 236) = (   0.1667336   0.4335615   0.4717156  )
       237           N   tau( 237) = (   0.2077096   0.5058248   1.0383798  )
       238           N   tau( 238) = (   0.0827543   0.4335477   1.0383951  )
       239           N   tau( 239) = (   0.0425267   0.5058961   0.8495424  )
       240           N   tau( 240) = (   0.1671136   0.4335783   0.8490425  )
       241           N   tau( 241) = (   0.4582664   0.0722603   0.2831104  )
       242           N   tau( 242) = (   0.3332664   0.0000000   0.2831104  )
       243           N   tau( 243) = (   0.2922682   0.0722612   0.0941965  )
       244           N   tau( 244) = (   0.4172475   0.0000000   0.0943001  )
       245           N   tau( 245) = (   0.4577842   0.0722633   0.6609330  )
       246           N   tau( 246) = (   0.3327773   0.0000000   0.6610079  )
       247           N   tau( 247) = (   0.2917336   0.0722603   0.4717156  )
       248           N   tau( 248) = (   0.4167337   0.0000000   0.4717156  )
       249           N   tau( 249) = (   0.4577511   0.0722624   1.0383909  )
       250           N   tau( 250) = (   0.3327385   0.0000000   1.0384459  )
       251           N   tau( 251) = (   0.2917029   0.0721464   0.8490799  )
       252           N   tau( 252) = (   0.4165984   0.0000000   0.8491382  )
       253           N   tau( 253) = (   0.4582664   0.2167808   0.2831104  )
       254           N   tau( 254) = (   0.3332664   0.1445205   0.2831104  )
       255           N   tau( 255) = (   0.2922798   0.2167816   0.0941965  )
       256           N   tau( 256) = (   0.4172597   0.1445141   0.0942591  )
       257           N   tau( 257) = (   0.4577535   0.2167856   0.6604721  )
       258           N   tau( 258) = (   0.3327641   0.1445221   0.6609318  )
       259           N   tau( 259) = (   0.2917336   0.2167807   0.4717156  )
       260           N   tau( 260) = (   0.4167337   0.1445205   0.4717156  )
       261           N   tau( 261) = (   0.4572678   0.2167003   1.0402930  )
       262           N   tau( 262) = (   0.3325659   0.1444834   1.0386399  )
       263           N   tau( 263) = (   0.2917448   0.2167251   0.8490646  )
       264           N   tau( 264) = (   0.4161386   0.1440804   0.8490116  )
       265           N   tau( 265) = (   0.4582664   0.3613012   0.2831104  )
       266           N   tau( 266) = (   0.3332664   0.2890410   0.2831104  )
       267           N   tau( 267) = (   0.2922798   0.3613004   0.0941965  )
       268           N   tau( 268) = (   0.4172706   0.2890410   0.0941766  )
       269           N   tau( 269) = (   0.4577535   0.3612964   0.6604721  )
       270           N   tau( 270) = (   0.3327462   0.2890410   0.6608186  )
       271           N   tau( 271) = (   0.2917336   0.3613013   0.4717156  )
       272           N   tau( 272) = (   0.4167337   0.2890410   0.4717156  )
       273           N   tau( 273) = (   0.4572678   0.3613817   1.0402930  )
       274           N   tau( 274) = (   0.3324321   0.2890410   1.0389806  )
       275           N   tau( 275) = (   0.2917448   0.3613569   0.8490646  )
       276           N   tau( 276) = (   0.4163078   0.2890410   0.8489095  )
       277           N   tau( 277) = (   0.4582664   0.5058217   0.2831104  )
       278           N   tau( 278) = (   0.3332664   0.4335615   0.2831104  )
       279           N   tau( 279) = (   0.2922682   0.5058208   0.0941965  )
       280           N   tau( 280) = (   0.4172597   0.4335679   0.0942591  )
       281           N   tau( 281) = (   0.4577842   0.5058187   0.6609330  )
       282           N   tau( 282) = (   0.3327641   0.4335599   0.6609318  )
       283           N   tau( 283) = (   0.2917336   0.5058217   0.4717156  )
       284           N   tau( 284) = (   0.4167337   0.4335615   0.4717156  )
       285           N   tau( 285) = (   0.4577511   0.5058196   1.0383909  )
       286           N   tau( 286) = (   0.3325659   0.4335986   1.0386399  )
       287           N   tau( 287) = (   0.2917029   0.5059356   0.8490799  )
       288           N   tau( 288) = (   0.4161386   0.4340016   0.8490116  )
       289           N   tau( 289) = (   0.7082664   0.0722602   0.2831104  )
       290           N   tau( 290) = (   0.5832664   0.0000000   0.2831104  )
       291           N   tau( 291) = (   0.5422374   0.0722542   0.0942897  )
       292           N   tau( 292) = (   0.6672299   0.0000000   0.0947480  )
       293           N   tau( 293) = (   0.7078079   0.0722517   0.6606598  )
       294           N   tau( 294) = (   0.5827983   0.0000000   0.6609259  )
       295           N   tau( 295) = (   0.5417336   0.0722602   0.4717156  )
       296           N   tau( 296) = (   0.6667337   0.0000000   0.4717156  )
       297           N   tau( 297) = (   0.7080187   0.0719819   1.0417631  )
       298           N   tau( 298) = (   0.5828295   0.0000000   1.0390365  )
       299           N   tau( 299) = (   0.5415409   0.0720102   0.8488970  )
       300           N   tau( 300) = (   0.6669263   0.0000000   0.8503739  )
       301           N   tau( 301) = (   0.7082664   0.2167807   0.2831104  )
       302           N   tau( 302) = (   0.5832664   0.1445205   0.2831104  )
       303           N   tau( 303) = (   0.5422514   0.2167656   0.0938401  )
       304           N   tau( 304) = (   0.6672316   0.1445167   0.0940870  )
       305           N   tau( 305) = (   0.7077896   0.2167554   0.6591932  )
       306           N   tau( 306) = (   0.5827840   0.1445237   0.6603184  )
       307           N   tau( 307) = (   0.5417336   0.2167808   0.4717156  )
       308           N   tau( 308) = (   0.6667336   0.1445205   0.4717156  )
       309           N   tau( 309) = (   0.7084309   0.2157206   1.0382674  )
       310           N   tau( 310) = (   0.5827892   0.1445620   1.0376016  )
       311           N   tau( 311) = (   0.5400796   0.2156865   0.8469759  )
       312           N   tau( 312) = (   0.6669581   0.1426496   0.8469747  )
       313           N   tau( 313) = (   0.7082664   0.3613013   0.2831104  )
       314           N   tau( 314) = (   0.5832663   0.2890410   0.2831104  )
       315           N   tau( 315) = (   0.5422514   0.3613164   0.0938401  )
       316           N   tau( 316) = (   0.6672487   0.2890410   0.0938598  )
       317           N   tau( 317) = (   0.7077896   0.3613266   0.6591932  )
       318           N   tau( 318) = (   0.5827404   0.2890410   0.6591117  )
       319           N   tau( 319) = (   0.5417336   0.3613012   0.4717156  )
       320           N   tau( 320) = (   0.6667336   0.2890410   0.4717156  )
       321           N   tau( 321) = (   0.7084309   0.3623614   1.0382674  )
       322           N   tau( 322) = (   0.5814785   0.2890410   1.0385150  )
       323           N   tau( 323) = (   0.5400796   0.3623955   0.8469759  )
       324           N   tau( 324) = (   0.7082664   0.5058217   0.2831104  )
       325           N   tau( 325) = (   0.5832664   0.4335615   0.2831104  )
       326           N   tau( 326) = (   0.5422374   0.5058278   0.0942897  )
       327           N   tau( 327) = (   0.6672316   0.4335653   0.0940870  )
       328           N   tau( 328) = (   0.7078079   0.5058303   0.6606598  )
       329           N   tau( 329) = (   0.5827840   0.4335582   0.6603184  )
       330           N   tau( 330) = (   0.5417336   0.5058217   0.4717156  )
       331           N   tau( 331) = (   0.6667336   0.4335615   0.4717156  )
       332           N   tau( 332) = (   0.7080187   0.5061001   1.0417631  )
       333           N   tau( 333) = (   0.5827892   0.4335200   1.0376016  )
       334           N   tau( 334) = (   0.5415409   0.5060718   0.8488970  )
       335           N   tau( 335) = (   0.6669581   0.4354324   0.8469747  )
       336           N   tau( 336) = (   0.9582663   0.0722602   0.2831104  )
       337           N   tau( 337) = (   0.8332664   0.0000000   0.2831104  )
       338           N   tau( 338) = (   0.7922530   0.0722633   0.0947865  )
       339           N   tau( 339) = (   0.9172673   0.0000000   0.0947289  )
       340           N   tau( 340) = (   0.9577854   0.0722617   0.6611349  )
       341           N   tau( 341) = (   0.8328066   0.0000000   0.6610414  )
       342           N   tau( 342) = (   0.7917337   0.0722602   0.4717157  )
       343           N   tau( 343) = (   0.9167336   0.0000000   0.4717156  )
       344           N   tau( 344) = (   0.9579837   0.0722209   1.0391516  )
       345           N   tau( 345) = (   0.8331226   0.0000000   1.0404102  )
       346           N   tau( 346) = (   0.7925358   0.0719923   0.8502098  )
       347           N   tau( 347) = (   0.9175979   0.0000000   0.8503800  )
       348           N   tau( 348) = (   0.9582663   0.2167807   0.2831104  )
       349           N   tau( 349) = (   0.8332664   0.1445205   0.2831104  )
       350           N   tau( 350) = (   0.7922675   0.2167892   0.0939634  )
       351           N   tau( 351) = (   0.9172763   0.1445273   0.0944283  )
       352           N   tau( 352) = (   0.9577672   0.2167830   0.6609562  )
       353           N   tau( 353) = (   0.8327875   0.1445112   0.6606575  )
       354           N   tau( 354) = (   0.7917337   0.2167807   0.4717156  )
       355           N   tau( 355) = (   0.9167336   0.1445205   0.4717156  )
       356           N   tau( 356) = (   0.9577871   0.2167816   1.0385186  )
       357           N   tau( 357) = (   0.8331445   0.1442412   1.0410112  )
       358           N   tau( 358) = (   0.7940077   0.2158199   0.8471320  )
       359           N   tau( 359) = (   0.9180431   0.1442108   0.8497635  )
       360           N   tau( 360) = (   0.9582663   0.3613013   0.2831104  )
       361           N   tau( 361) = (   0.8332664   0.2890410   0.2831104  )
       362           N   tau( 362) = (   0.7922675   0.3612927   0.0939634  )
       363           N   tau( 363) = (   0.9172836   0.2890410   0.0940914  )
       364           N   tau( 364) = (   0.9577672   0.3612989   0.6609562  )
       365           N   tau( 365) = (   0.8327672   0.2890410   0.6602759  )
       366           N   tau( 366) = (   0.7917337   0.3613012   0.4717156  )
       367           N   tau( 367) = (   0.9167336   0.2890410   0.4717156  )
       368           N   tau( 368) = (   0.9577871   0.3613004   1.0385186  )
       369           N   tau( 369) = (   0.8327539   0.2890410   1.0373572  )
       370           N   tau( 370) = (   0.7940077   0.3622621   0.8471320  )
       371           N   tau( 371) = (   0.9177402   0.2890410   0.8488848  )
       372           N   tau( 372) = (   0.9582663   0.5058218   0.2831104  )
       373           N   tau( 373) = (   0.8332664   0.4335615   0.2831104  )
       374           N   tau( 374) = (   0.7922530   0.5058187   0.0947865  )
       375           N   tau( 375) = (   0.9172763   0.4335547   0.0944283  )
       376           N   tau( 376) = (   0.9577854   0.5058203   0.6611349  )
       377           N   tau( 377) = (   0.8327875   0.4335708   0.6606575  )
       378           N   tau( 378) = (   0.7917337   0.5058217   0.4717157  )
       379           N   tau( 379) = (   0.9167336   0.4335615   0.4717156  )
       380           N   tau( 380) = (   0.9579837   0.5058611   1.0391516  )
       381           N   tau( 381) = (   0.8331445   0.4338408   1.0410112  )
       382           N   tau( 382) = (   0.7925358   0.5060897   0.8502098  )
       383           N   tau( 383) = (   0.9180431   0.4338712   0.8497635  )
       384           C   tau( 384) = (   0.6672049   0.2890410   0.8338694  )
       385           C   tau( 385) = (   0.6655396   0.2890410   0.9188184  )

   Crystallographic axes

     site n.     atom                  positions (cryst. coord.)
         1           B   tau(   1) = (  0.2089065  0.1250064  0.0829943  )
         2           B   tau(   2) = (  0.0838478  0.0000000  0.0830729  )
         3           B   tau(   3) = (  0.0416663  0.1250000  0.2500212  )
         4           B   tau(   4) = (  0.1666663  0.0000000  0.2500212  )
         5           B   tau(   5) = (  0.2083337  0.1250000  0.4166458  )
         6           B   tau(   6) = (  0.0833337  0.0000000  0.4166458  )
         7           B   tau(   7) = (  0.0411332  0.1250035  0.5840304  )
         8           B   tau(   8) = (  0.1661619  0.0000000  0.5839512  )
         9           B   tau(   9) = (  0.2085672  0.1249473  0.7500375  )
        10           B   tau(  10) = (  0.0839242  0.0000000  0.7503257  )
        11           B   tau(  11) = (  0.0411233  0.1249949  0.9172560  )
        12           B   tau(  12) = (  0.1661443  0.0000000  0.9170408  )
        13           B   tau(  13) = (  0.2089219  0.3750065  0.0829807  )
        14           B   tau(  14) = (  0.0838550  0.2500152  0.0830024  )
        15           B   tau(  15) = (  0.0416663  0.3750000  0.2500212  )
        16           B   tau(  16) = (  0.1666663  0.2500000  0.2500212  )
        17           B   tau(  17) = (  0.2083337  0.3750000  0.4166458  )
        18           B   tau(  18) = (  0.0833337  0.2500000  0.4166458  )
        19           B   tau(  19) = (  0.0411173  0.3750040  0.5839515  )
        20           B   tau(  20) = (  0.1661549  0.2500057  0.5839212  )
        21           B   tau(  21) = (  0.2086118  0.3749933  0.7499920  )
        22           B   tau(  22) = (  0.0838479  0.2499683  0.7502008  )
        23           B   tau(  23) = (  0.0409155  0.3750311  0.9169929  )
        24           B   tau(  24) = (  0.1660721  0.2500183  0.9169714  )
        25           B   tau(  25) = (  0.2089219  0.6249935  0.0829807  )
        26           B   tau(  26) = (  0.0838620  0.5000000  0.0829314  )
        27           B   tau(  27) = (  0.0416663  0.6250000  0.2500212  )
        28           B   tau(  28) = (  0.1666663  0.5000000  0.2500212  )
        29           B   tau(  29) = (  0.2083337  0.6250000  0.4166458  )
        30           B   tau(  30) = (  0.0833337  0.5000000  0.4166458  )
        31           B   tau(  31) = (  0.0411173  0.6249960  0.5839515  )
        32           B   tau(  32) = (  0.1661486  0.5000000  0.5838861  )
        33           B   tau(  33) = (  0.2086118  0.6250067  0.7499920  )
        34           B   tau(  34) = (  0.0838444  0.5000000  0.7500581  )
        35           B   tau(  35) = (  0.0409155  0.6249689  0.9169929  )
        36           B   tau(  36) = (  0.1660019  0.5000000  0.9168441  )
        37           B   tau(  37) = (  0.2089065  0.8749936  0.0829943  )
        38           B   tau(  38) = (  0.0838550  0.7499848  0.0830024  )
        39           B   tau(  39) = (  0.0416663  0.8750000  0.2500212  )
        40           B   tau(  40) = (  0.1666663  0.7500000  0.2500212  )
        41           B   tau(  41) = (  0.2083337  0.8750000  0.4166458  )
        42           B   tau(  42) = (  0.0833337  0.7500000  0.4166458  )
        43           B   tau(  43) = (  0.0411332  0.8749965  0.5840304  )
        44           B   tau(  44) = (  0.1661549  0.7499943  0.5839212  )
        45           B   tau(  45) = (  0.2085672  0.8750527  0.7500375  )
        46           B   tau(  46) = (  0.0838479  0.7500317  0.7502008  )
        47           B   tau(  47) = (  0.0411233  0.8750051  0.9172560  )
        48           B   tau(  48) = (  0.1660721  0.7499817  0.9169714  )
        49           B   tau(  49) = (  0.4589401  0.1250149  0.0830343  )
        50           B   tau(  50) = (  0.3339369  0.0000000  0.0830552  )
        51           B   tau(  51) = (  0.2916663  0.1250000  0.2500212  )
        52           B   tau(  52) = (  0.4166663  0.0000000  0.2500212  )
        53           B   tau(  53) = (  0.4583337  0.1250000  0.4166458  )
        54           B   tau(  54) = (  0.3333337  0.0000000  0.4166458  )
        55           B   tau(  55) = (  0.2911974  0.1250081  0.5839256  )
        56           B   tau(  56) = (  0.4162349  0.0000000  0.5839617  )
        57           B   tau(  57) = (  0.4582724  0.1248058  0.7500798  )
        58           B   tau(  58) = (  0.3334077  0.0000000  0.7500954  )
        59           B   tau(  59) = (  0.2911923  0.1249788  0.9171096  )
        60           B   tau(  60) = (  0.4164286  0.0000000  0.9170465  )
        61           B   tau(  61) = (  0.4590039  0.3750186  0.0827981  )
        62           B   tau(  62) = (  0.3339579  0.2500096  0.0830460  )
        63           B   tau(  63) = (  0.2916663  0.3750000  0.2500212  )
        64           B   tau(  64) = (  0.4166663  0.2500000  0.2500212  )
        65           B   tau(  65) = (  0.4583337  0.3750000  0.4166458  )
        66           B   tau(  66) = (  0.3333337  0.2500000  0.4166458  )
        67           B   tau(  67) = (  0.2911848  0.3750093  0.5838553  )
        68           B   tau(  68) = (  0.4162257  0.2500374  0.5838097  )
        69           B   tau(  69) = (  0.4576000  0.3741123  0.7496547  )
        70           B   tau(  70) = (  0.3331845  0.2497099  0.7500911  )
        71           B   tau(  71) = (  0.2910838  0.3749933  0.9172332  )
        72           B   tau(  72) = (  0.4162272  0.2501116  0.9176857  )
        73           B   tau(  73) = (  0.4590039  0.6249814  0.0827981  )
        74           B   tau(  74) = (  0.3339807  0.5000000  0.0830147  )
        75           B   tau(  75) = (  0.2916663  0.6250000  0.2500212  )
        76           B   tau(  76) = (  0.4166663  0.5000000  0.2500212  )
        77           B   tau(  77) = (  0.4583337  0.6250000  0.4166458  )
        78           B   tau(  78) = (  0.3333337  0.5000000  0.4166458  )
        79           B   tau(  79) = (  0.2911848  0.6249907  0.5838553  )
        80           B   tau(  80) = (  0.4162120  0.5000000  0.5836153  )
        81           B   tau(  81) = (  0.4576000  0.6258877  0.7496547  )
        82           B   tau(  82) = (  0.3333652  0.5000000  0.7500912  )
        83           B   tau(  83) = (  0.2910838  0.6250067  0.9172332  )
        84           B   tau(  84) = (  0.4161021  0.5000000  0.9183635  )
        85           B   tau(  85) = (  0.4589401  0.8749851  0.0830343  )
        86           B   tau(  86) = (  0.3339579  0.7499904  0.0830460  )
        87           B   tau(  87) = (  0.2916663  0.8750000  0.2500212  )
        88           B   tau(  88) = (  0.4166663  0.7500000  0.2500212  )
        89           B   tau(  89) = (  0.4583337  0.8750000  0.4166458  )
        90           B   tau(  90) = (  0.3333337  0.7500000  0.4166458  )
        91           B   tau(  91) = (  0.2911974  0.8749919  0.5839256  )
        92           B   tau(  92) = (  0.4162257  0.7499626  0.5838097  )
        93           B   tau(  93) = (  0.4582724  0.8751942  0.7500798  )
        94           B   tau(  94) = (  0.3331845  0.7502901  0.7500911  )
        95           B   tau(  95) = (  0.2911923  0.8750212  0.9171096  )
        96           B   tau(  96) = (  0.4162272  0.7498884  0.9176857  )
        97           B   tau(  97) = (  0.7087807  0.1250924  0.0831841  )
        98           B   tau(  98) = (  0.5838657  0.0000000  0.0831244  )
        99           B   tau(  99) = (  0.5416663  0.1250000  0.2500212  )
       100           B   tau( 100) = (  0.6666663  0.0000000  0.2500212  )
       101           B   tau( 101) = (  0.7083338  0.1250000  0.4166458  )
       102           B   tau( 102) = (  0.5833337  0.0000000  0.4166458  )
       103           B   tau( 103) = (  0.5412460  0.1250446  0.5838199  )
       104           B   tau( 104) = (  0.6662278  0.0000000  0.5838583  )
       105           B   tau( 105) = (  0.7087056  0.1238358  0.7505889  )
       106           B   tau( 106) = (  0.5834605  0.0000000  0.7504833  )
       107           B   tau( 107) = (  0.5415666  0.1255413  0.9169342  )
       108           B   tau( 108) = (  0.6664325  0.0000000  0.9192878  )
       109           B   tau( 109) = (  0.7087604  0.3751863  0.0821536  )
       110           B   tau( 110) = (  0.5839029  0.2500909  0.0827076  )
       111           B   tau( 111) = (  0.5416663  0.3750000  0.2500212  )
       112           B   tau( 112) = (  0.6666663  0.2500000  0.2500212  )
       113           B   tau( 113) = (  0.7083338  0.3750000  0.4166458  )
       114           B   tau( 114) = (  0.5833337  0.2500000  0.4166458  )
       115           B   tau( 115) = (  0.5412374  0.3750735  0.5831607  )
       116           B   tau( 116) = (  0.6662121  0.2500697  0.5832557  )
       117           B   tau( 117) = (  0.7104910  0.3696446  0.7457969  )
       118           B   tau( 118) = (  0.5832932  0.2494241  0.7487115  )
       119           B   tau( 119) = (  0.5413226  0.3762924  0.9176621  )
       120           B   tau( 120) = (  0.6668348  0.2507966  0.9180133  )
       121           B   tau( 121) = (  0.7087604  0.6248137  0.0821536  )
       122           B   tau( 122) = (  0.5840033  0.5000000  0.0820272  )
       123           B   tau( 123) = (  0.5416663  0.6250000  0.2500212  )
       124           B   tau( 124) = (  0.6666663  0.5000000  0.2500212  )
       125           B   tau( 125) = (  0.7083338  0.6250000  0.4166458  )
       126           B   tau( 126) = (  0.5833337  0.5000000  0.4166458  )
       127           B   tau( 127) = (  0.5412374  0.6249265  0.5831607  )
       128           B   tau( 128) = (  0.6661734  0.5000000  0.5826731  )
       129           B   tau( 129) = (  0.7104910  0.6303554  0.7457969  )
       130           B   tau( 130) = (  0.5801164  0.5000000  0.7464743  )
       131           B   tau( 131) = (  0.5413226  0.6237076  0.9176621  )
       132           B   tau( 132) = (  0.6661314  0.5000000  0.8951049  )
       133           B   tau( 133) = (  0.7087807  0.8749076  0.0831841  )
       134           B   tau( 134) = (  0.5839029  0.7499091  0.0827076  )
       135           B   tau( 135) = (  0.5416663  0.8750000  0.2500212  )
       136           B   tau( 136) = (  0.6666663  0.7500000  0.2500212  )
       137           B   tau( 137) = (  0.7083338  0.8750000  0.4166458  )
       138           B   tau( 138) = (  0.5833337  0.7500000  0.4166458  )
       139           B   tau( 139) = (  0.5412460  0.8749554  0.5838199  )
       140           B   tau( 140) = (  0.6662121  0.7499303  0.5832557  )
       141           B   tau( 141) = (  0.7087056  0.8761642  0.7505889  )
       142           B   tau( 142) = (  0.5832932  0.7505759  0.7487115  )
       143           B   tau( 143) = (  0.5415666  0.8744587  0.9169342  )
       144           B   tau( 144) = (  0.6668348  0.7492034  0.9180133  )
       145           B   tau( 145) = (  0.9587917  0.1250271  0.0832799  )
       146           B   tau( 146) = (  0.8337576  0.0000000  0.0835252  )
       147           B   tau( 147) = (  0.7916663  0.1250000  0.2500212  )
       148           B   tau( 148) = (  0.9166663  0.0000000  0.2500212  )
       149           B   tau( 149) = (  0.9583337  0.1250000  0.4166458  )
       150           B   tau( 150) = (  0.8333338  0.0000000  0.4166458  )
       151           B   tau( 151) = (  0.7911665  0.1250067  0.5838368  )
       152           B   tau( 152) = (  0.9161357  0.0000000  0.5840866  )
       153           B   tau( 153) = (  0.9591971  0.1247117  0.7508717  )
       154           B   tau( 154) = (  0.8340079  0.0000000  0.7514089  )
       155           B   tau( 155) = (  0.7912618  0.1249426  0.9194630  )
       156           B   tau( 156) = (  0.9161950  0.0000000  0.9180893  )
       157           B   tau( 157) = (  0.9587978  0.3750290  0.0829753  )
       158           B   tau( 158) = (  0.8337495  0.2501048  0.0830639  )
       159           B   tau( 159) = (  0.7916663  0.3750000  0.2500212  )
       160           B   tau( 160) = (  0.9166663  0.2500000  0.2500212  )
       161           B   tau( 161) = (  0.9583337  0.3750000  0.4166458  )
       162           B   tau( 162) = (  0.8333338  0.2500000  0.4166458  )
       163           B   tau( 163) = (  0.7911004  0.3750112  0.5832163  )
       164           B   tau( 164) = (  0.9161104  0.2500039  0.5839365  )
       165           B   tau( 165) = (  0.9590627  0.3748846  0.7502771  )
       166           B   tau( 166) = (  0.8347211  0.2491392  0.7503440  )
       167           B   tau( 167) = (  0.7904361  0.3745142  0.9177319  )
       168           B   tau( 168) = (  0.9160357  0.2499087  0.9181054  )
       169           B   tau( 169) = (  0.9587978  0.6249710  0.0829753  )
       170           B   tau( 170) = (  0.8337403  0.5000000  0.0826554  )
       171           B   tau( 171) = (  0.7916663  0.6250000  0.2500212  )
       172           B   tau( 172) = (  0.9166663  0.5000000  0.2500212  )
       173           B   tau( 173) = (  0.9583337  0.6250000  0.4166458  )
       174           B   tau( 174) = (  0.8333338  0.5000000  0.4166458  )
       175           B   tau( 175) = (  0.7911004  0.6249888  0.5832163  )
       176           B   tau( 176) = (  0.9160839  0.5000000  0.5837859  )
       177           B   tau( 177) = (  0.9590627  0.6251154  0.7502771  )
       178           B   tau( 178) = (  0.8342311  0.5000000  0.7487419  )
       179           B   tau( 179) = (  0.7904361  0.6254858  0.9177319  )
       180           B   tau( 180) = (  0.9155684  0.5000000  0.9167440  )
       181           B   tau( 181) = (  0.9587917  0.8749729  0.0832799  )
       182           B   tau( 182) = (  0.8337495  0.7498952  0.0830639  )
       183           B   tau( 183) = (  0.7916663  0.8750000  0.2500212  )
       184           B   tau( 184) = (  0.9166663  0.7500000  0.2500212  )
       185           B   tau( 185) = (  0.9583337  0.8750000  0.4166458  )
       186           B   tau( 186) = (  0.8333338  0.7500000  0.4166458  )
       187           B   tau( 187) = (  0.7911665  0.8749933  0.5838368  )
       188           B   tau( 188) = (  0.9161104  0.7499961  0.5839365  )
       189           B   tau( 189) = (  0.9591971  0.8752883  0.7508717  )
       190           B   tau( 190) = (  0.8347211  0.7508608  0.7503440  )
       191           B   tau( 191) = (  0.7912618  0.8750574  0.9194630  )
       192           B   tau( 192) = (  0.9160357  0.7500913  0.9181054  )
       193           N   tau( 193) = (  0.2082663  0.1250000  0.2500448  )
       194           N   tau( 194) = (  0.0832664  0.0000000  0.2500449  )
       195           N   tau( 195) = (  0.0422777  0.1250037  0.0832727  )
       196           N   tau( 196) = (  0.1672756  0.0000000  0.0831223  )
       197           N   tau( 197) = (  0.2077690  0.1250009  0.5837938  )
       198           N   tau( 198) = (  0.0827748  0.0000000  0.5838747  )
       199           N   tau( 199) = (  0.0417337  0.1250000  0.4166221  )
       200           N   tau( 200) = (  0.1667336  0.0000000  0.4166221  )
       201           N   tau( 201) = (  0.2077096  0.1249947  0.9171034  )
       202           N   tau( 202) = (  0.0828381  0.0000000  0.9171610  )
       203           N   tau( 203) = (  0.0425267  0.1248713  0.7503211  )
       204           N   tau( 204) = (  0.1671237  0.0000000  0.7499305  )
       205           N   tau( 205) = (  0.2082663  0.3750000  0.2500449  )
       206           N   tau( 206) = (  0.0832664  0.2500000  0.2500449  )
       207           N   tau( 207) = (  0.0422902  0.3750043  0.0831243  )
       208           N   tau( 208) = (  0.1672827  0.2500040  0.0831064  )
       209           N   tau( 209) = (  0.2077562  0.3750002  0.5837413  )
       210           N   tau( 210) = (  0.0827671  0.2500044  0.5838296  )
       211           N   tau( 211) = (  0.0417337  0.3750000  0.4166221  )
       212           N   tau( 212) = (  0.1667336  0.2500000  0.4166221  )
       213           N   tau( 213) = (  0.2076117  0.3749985  0.9169425  )
       214           N   tau( 214) = (  0.0827543  0.2500239  0.9171169  )
       215           N   tau( 215) = (  0.0424453  0.3749741  0.7500259  )
       216           N   tau( 216) = (  0.1671136  0.2499709  0.7498795  )
       217           N   tau( 217) = (  0.2082663  0.6250000  0.2500449  )
       218           N   tau( 218) = (  0.0832664  0.5000000  0.2500449  )
       219           N   tau( 219) = (  0.0422902  0.6249957  0.0831243  )
       220           N   tau( 220) = (  0.1672902  0.5000000  0.0830939  )
       221           N   tau( 221) = (  0.2077562  0.6249998  0.5837413  )
       222           N   tau( 222) = (  0.0827597  0.5000000  0.5837774  )
       223           N   tau( 223) = (  0.0417337  0.6250000  0.4166221  )
       224           N   tau( 224) = (  0.1667336  0.5000000  0.4166221  )
       225           N   tau( 225) = (  0.2076117  0.6250015  0.9169425  )
       226           N   tau( 226) = (  0.0826973  0.5000000  0.9168807  )
       227           N   tau( 227) = (  0.0424453  0.6250259  0.7500259  )
       228           N   tau( 228) = (  0.1671087  0.5000000  0.7498226  )
       229           N   tau( 229) = (  0.2082663  0.8750000  0.2500448  )
       230           N   tau( 230) = (  0.0832664  0.7500000  0.2500449  )
       231           N   tau( 231) = (  0.0422777  0.8749963  0.0832727  )
       232           N   tau( 232) = (  0.1672827  0.7499960  0.0831064  )
       233           N   tau( 233) = (  0.2077690  0.8749991  0.5837938  )
       234           N   tau( 234) = (  0.0827671  0.7499956  0.5838296  )
       235           N   tau( 235) = (  0.0417337  0.8750000  0.4166221  )
       236           N   tau( 236) = (  0.1667336  0.7500000  0.4166221  )
       237           N   tau( 237) = (  0.2077096  0.8750053  0.9171034  )
       238           N   tau( 238) = (  0.0827543  0.7499761  0.9171169  )
       239           N   tau( 239) = (  0.0425267  0.8751287  0.7503211  )
       240           N   tau( 240) = (  0.1671136  0.7500291  0.7498795  )
       241           N   tau( 241) = (  0.4582664  0.1250000  0.2500449  )
       242           N   tau( 242) = (  0.3332664  0.0000000  0.2500449  )
       243           N   tau( 243) = (  0.2922682  0.1250016  0.0831949  )
       244           N   tau( 244) = (  0.4172475  0.0000000  0.0832864  )
       245           N   tau( 245) = (  0.4577842  0.1250054  0.5837400  )
       246           N   tau( 246) = (  0.3327773  0.0000000  0.5838062  )
       247           N   tau( 247) = (  0.2917336  0.1250000  0.4166221  )
       248           N   tau( 248) = (  0.4167337  0.0000000  0.4166221  )
       249           N   tau( 249) = (  0.4577511  0.1250038  0.9171132  )
       250           N   tau( 250) = (  0.3327385  0.0000000  0.9171617  )
       251           N   tau( 251) = (  0.2917029  0.1248030  0.7499125  )
       252           N   tau( 252) = (  0.4165984  0.0000000  0.7499640  )
       253           N   tau( 253) = (  0.4582664  0.3750000  0.2500449  )
       254           N   tau( 254) = (  0.3332664  0.2500000  0.2500449  )
       255           N   tau( 255) = (  0.2922798  0.3750014  0.0831949  )
       256           N   tau( 256) = (  0.4172597  0.2499890  0.0832502  )
       257           N   tau( 257) = (  0.4577535  0.3750084  0.5833329  )
       258           N   tau( 258) = (  0.3327641  0.2500028  0.5837390  )
       259           N   tau( 259) = (  0.2917336  0.3750000  0.4166221  )
       260           N   tau( 260) = (  0.4167337  0.2500000  0.4166221  )
       261           N   tau( 261) = (  0.4572678  0.3748608  0.9187931  )
       262           N   tau( 262) = (  0.3325659  0.2499358  0.9173331  )
       263           N   tau( 263) = (  0.2917448  0.3749037  0.7498991  )
       264           N   tau( 264) = (  0.4161386  0.2492387  0.7498522  )
       265           N   tau( 265) = (  0.4582664  0.6250000  0.2500449  )
       266           N   tau( 266) = (  0.3332664  0.5000000  0.2500449  )
       267           N   tau( 267) = (  0.2922798  0.6249986  0.0831949  )
       268           N   tau( 268) = (  0.4172706  0.5000000  0.0831774  )
       269           N   tau( 269) = (  0.4577535  0.6249916  0.5833329  )
       270           N   tau( 270) = (  0.3327462  0.5000000  0.5836390  )
       271           N   tau( 271) = (  0.2917336  0.6250000  0.4166221  )
       272           N   tau( 272) = (  0.4167337  0.5000000  0.4166221  )
       273           N   tau( 273) = (  0.4572678  0.6251392  0.9187931  )
       274           N   tau( 274) = (  0.3324321  0.5000000  0.9176340  )
       275           N   tau( 275) = (  0.2917448  0.6250963  0.7498991  )
       276           N   tau( 276) = (  0.4163078  0.5000000  0.7497620  )
       277           N   tau( 277) = (  0.4582664  0.8750000  0.2500449  )
       278           N   tau( 278) = (  0.3332664  0.7500000  0.2500449  )
       279           N   tau( 279) = (  0.2922682  0.8749984  0.0831949  )
       280           N   tau( 280) = (  0.4172597  0.7500110  0.0832502  )
       281           N   tau( 281) = (  0.4577842  0.8749946  0.5837400  )
       282           N   tau( 282) = (  0.3327641  0.7499972  0.5837390  )
       283           N   tau( 283) = (  0.2917336  0.8750000  0.4166221  )
       284           N   tau( 284) = (  0.4167337  0.7500000  0.4166221  )
       285           N   tau( 285) = (  0.4577511  0.8749962  0.9171132  )
       286           N   tau( 286) = (  0.3325659  0.7500642  0.9173331  )
       287           N   tau( 287) = (  0.2917029  0.8751970  0.7499125  )
       288           N   tau( 288) = (  0.4161386  0.7507613  0.7498522  )
       289           N   tau( 289) = (  0.7082664  0.1250000  0.2500448  )
       290           N   tau( 290) = (  0.5832664  0.0000000  0.2500449  )
       291           N   tau( 291) = (  0.5422374  0.1249896  0.0832772  )
       292           N   tau( 292) = (  0.6672299  0.0000000  0.0836820  )
       293           N   tau( 293) = (  0.7078079  0.1249852  0.5834988  )
       294           N   tau( 294) = (  0.5827983  0.0000000  0.5837337  )
       295           N   tau( 295) = (  0.5417336  0.1250000  0.4166221  )
       296           N   tau( 296) = (  0.6667337  0.0000000  0.4166221  )
       297           N   tau( 297) = (  0.7080187  0.1245185  0.9200915  )
       298           N   tau( 298) = (  0.5828295  0.0000000  0.9176834  )
       299           N   tau( 299) = (  0.5415409  0.1245674  0.7497510  )
       300           N   tau( 300) = (  0.6669263  0.0000000  0.7510554  )
       301           N   tau( 301) = (  0.7082664  0.3750000  0.2500448  )
       302           N   tau( 302) = (  0.5832664  0.2500000  0.2500449  )
       303           N   tau( 303) = (  0.5422514  0.3749738  0.0828802  )
       304           N   tau( 304) = (  0.6672316  0.2499934  0.0830982  )
       305           N   tau( 305) = (  0.7077896  0.3749562  0.5822035  )
       306           N   tau( 306) = (  0.5827840  0.2500056  0.5831973  )
       307           N   tau( 307) = (  0.5417336  0.3750000  0.4166221  )
       308           N   tau( 308) = (  0.6667336  0.2500000  0.4166221  )
       309           N   tau( 309) = (  0.7084309  0.3731661  0.9170041  )
       310           N   tau( 310) = (  0.5827892  0.2500718  0.9164161  )
       311           N   tau( 311) = (  0.5400796  0.3731071  0.7480542  )
       312           N   tau( 312) = (  0.6669581  0.2467636  0.7480533  )
       313           N   tau( 313) = (  0.7082664  0.6250000  0.2500448  )
       314           N   tau( 314) = (  0.5832663  0.5000000  0.2500449  )
       315           N   tau( 315) = (  0.5422514  0.6250262  0.0828802  )
       316           N   tau( 316) = (  0.6672487  0.5000000  0.0828976  )
       317           N   tau( 317) = (  0.7077896  0.6250438  0.5822035  )
       318           N   tau( 318) = (  0.5827404  0.5000000  0.5821314  )
       319           N   tau( 319) = (  0.5417336  0.6250000  0.4166221  )
       320           N   tau( 320) = (  0.6667336  0.5000000  0.4166221  )
       321           N   tau( 321) = (  0.7084309  0.6268339  0.9170041  )
       322           N   tau( 322) = (  0.5814785  0.5000000  0.9172228  )
       323           N   tau( 323) = (  0.5400796  0.6268929  0.7480542  )
       324           N   tau( 324) = (  0.7082664  0.8750000  0.2500448  )
       325           N   tau( 325) = (  0.5832664  0.7500000  0.2500449  )
       326           N   tau( 326) = (  0.5422374  0.8750104  0.0832772  )
       327           N   tau( 327) = (  0.6672316  0.7500066  0.0830982  )
       328           N   tau( 328) = (  0.7078079  0.8750148  0.5834988  )
       329           N   tau( 329) = (  0.5827840  0.7499944  0.5831973  )
       330           N   tau( 330) = (  0.5417336  0.8750000  0.4166221  )
       331           N   tau( 331) = (  0.6667336  0.7500000  0.4166221  )
       332           N   tau( 332) = (  0.7080187  0.8754815  0.9200915  )
       333           N   tau( 333) = (  0.5827892  0.7499282  0.9164161  )
       334           N   tau( 334) = (  0.5415409  0.8754326  0.7497510  )
       335           N   tau( 335) = (  0.6669581  0.7532364  0.7480533  )
       336           N   tau( 336) = (  0.9582663  0.1250000  0.2500449  )
       337           N   tau( 337) = (  0.8332664  0.0000000  0.2500449  )
       338           N   tau( 338) = (  0.7922530  0.1250052  0.0837160  )
       339           N   tau( 339) = (  0.9172673  0.0000000  0.0836651  )
       340           N   tau( 340) = (  0.9577854  0.1250025  0.5839184  )
       341           N   tau( 341) = (  0.8328066  0.0000000  0.5838358  )
       342           N   tau( 342) = (  0.7917337  0.1250000  0.4166221  )
       343           N   tau( 343) = (  0.9167336  0.0000000  0.4166221  )
       344           N   tau( 344) = (  0.9579837  0.1249319  0.9177850  )
       345           N   tau( 345) = (  0.8331226  0.0000000  0.9188966  )
       346           N   tau( 346) = (  0.7925358  0.1245365  0.7509105  )
       347           N   tau( 347) = (  0.9175979  0.0000000  0.7510608  )
       348           N   tau( 348) = (  0.9582663  0.3750000  0.2500449  )
       349           N   tau( 349) = (  0.8332664  0.2500000  0.2500449  )
       350           N   tau( 350) = (  0.7922675  0.3750147  0.0829890  )
       351           N   tau( 351) = (  0.9172763  0.2500118  0.0833997  )
       352           N   tau( 352) = (  0.9577672  0.3750040  0.5837606  )
       353           N   tau( 353) = (  0.8327875  0.2499840  0.5834968  )
       354           N   tau( 354) = (  0.7917337  0.3750000  0.4166221  )
       355           N   tau( 355) = (  0.9167336  0.2500000  0.4166221  )
       356           N   tau( 356) = (  0.9577871  0.3750015  0.9172260  )
       357           N   tau( 357) = (  0.8331445  0.2495169  0.9194274  )
       358           N   tau( 358) = (  0.7940077  0.3733379  0.7481922  )
       359           N   tau( 359) = (  0.9180431  0.2494643  0.7505163  )
       360           N   tau( 360) = (  0.9582663  0.6250000  0.2500449  )
       361           N   tau( 361) = (  0.8332664  0.5000000  0.2500449  )
       362           N   tau( 362) = (  0.7922675  0.6249853  0.0829890  )
       363           N   tau( 363) = (  0.9172836  0.5000000  0.0831021  )
       364           N   tau( 364) = (  0.9577672  0.6249960  0.5837606  )
       365           N   tau( 365) = (  0.8327672  0.5000000  0.5831597  )
       366           N   tau( 366) = (  0.7917337  0.6250000  0.4166221  )
       367           N   tau( 367) = (  0.9167336  0.5000000  0.4166221  )
       368           N   tau( 368) = (  0.9577871  0.6249985  0.9172260  )
       369           N   tau( 369) = (  0.8327539  0.5000000  0.9162002  )
       370           N   tau( 370) = (  0.7940077  0.6266621  0.7481922  )
       371           N   tau( 371) = (  0.9177402  0.5000000  0.7497402  )
       372           N   tau( 372) = (  0.9582663  0.8750000  0.2500449  )
       373           N   tau( 373) = (  0.8332664  0.7500000  0.2500449  )
       374           N   tau( 374) = (  0.7922530  0.8749948  0.0837160  )
       375           N   tau( 375) = (  0.9172763  0.7499883  0.0833997  )
       376           N   tau( 376) = (  0.9577854  0.8749975  0.5839184  )
       377           N   tau( 377) = (  0.8327875  0.7500160  0.5834968  )
       378           N   tau( 378) = (  0.7917337  0.8750000  0.4166221  )
       379           N   tau( 379) = (  0.9167336  0.7500000  0.4166221  )
       380           N   tau( 380) = (  0.9579837  0.8750681  0.9177850  )
       381           N   tau( 381) = (  0.8331445  0.7504831  0.9194274  )
       382           N   tau( 382) = (  0.7925358  0.8754635  0.7509105  )
       383           N   tau( 383) = (  0.9180431  0.7505357  0.7505163  )
       384           C   tau( 384) = (  0.6672049  0.5000000  0.7364786  )
       385           C   tau( 385) = (  0.6655396  0.5000000  0.8115060  )

     number of k points=     1
                       cart. coord. in units 2pi/alat
        k(    1) = (   0.0000000   0.0000000   0.0000000), wk =   1.0000000

                       cryst. coord.
        k(    1) = (   0.0000000   0.0000000   0.0000000), wk =   1.0000000

     Dense  grid:  1223203 G-vectors     FFT dimensions: ( 200, 120, 225)

     Dynamical RAM for                 wfc:       9.52 MB

     Dynamical RAM for     wfc (w. buffer):      28.57 MB

     Dynamical RAM for           str. fact:       0.29 MB

     Dynamical RAM for           local pot:       0.00 MB

     Dynamical RAM for          nlocal pot:      37.41 MB

     Dynamical RAM for                qrad:       6.61 MB

     Dynamical RAM for          rho,v,vnew:       2.78 MB

     Dynamical RAM for               rhoin:       0.93 MB

     Dynamical RAM for            rho*nmix:       3.11 MB

     Dynamical RAM for           G-vectors:       0.41 MB

     Dynamical RAM for          h,s,v(r/c):       2.77 MB

     Dynamical RAM for          <psi|beta>:      18.42 MB

     Dynamical RAM for                 psi:      38.09 MB

     Dynamical RAM for                hpsi:      38.09 MB

     Dynamical RAM for      wfcinit/wfcrot:      33.12 MB

     Estimated static dynamical RAM per process >      82.70 MB

     Estimated max dynamical RAM per process >     180.08 MB

     Estimated total dynamical RAM >      33.76 GB
     Generating pointlists ...
     new r_m :   0.0338 (alat units)  1.1098 (a.u.) for type    1
     new r_m :   0.0338 (alat units)  1.1098 (a.u.) for type    2
     new r_m :   0.0350 (alat units)  1.1497 (a.u.) for type    3

     Initial potential from superposition of free atoms

     starting charge 1535.20606, renormalised to 1540.00000


     %%%%%%%%%%%%%%%%%%%%%%%%%%%%%%%%%%%%%%%%%%%%%%%%%%%%%%%%%%%%%%%%%%%%%%%%
     %                                                                      %
     % You are using vdW-DF, which was implemented by the Thonhauser group. %
     % Please cite the following two papers that made this development      %
     % possible and the two reviews that describe the various versions:     %
     %                                                                      %
     %   T. Thonhauser et al., PRL 115, 136402 (2015).                      %
     %   T. Thonhauser et al., PRB 76, 125112 (2007).                       %
     %   K. Berland et al., Rep. Prog. Phys. 78, 066501 (2015).             %
     %   D.C. Langreth et al., J. Phys.: Condens. Matter 21, 084203 (2009). %
     %                                                                      %
     %                                                                      %
     % If you are calculating the stress with vdW-DF, please also cite:     %
     %                                                                      %
     %   R. Sabatini et al., J. Phys.: Condens. Matter 24, 424209 (2012).   %
     %                                                                      %
     %%%%%%%%%%%%%%%%%%%%%%%%%%%%%%%%%%%%%%%%%%%%%%%%%%%%%%%%%%%%%%%%%%%%%%%%


     Carrying out vdW-DF run using the following parameters:
     Nqs    =  20  Npoints =  1024  r_max =  100.000
     q_mesh =  0.00001000  0.04494208  0.09755937  0.15916263
               0.23128650  0.31572767  0.41458969  0.53033537
               0.66584808  0.82450364  1.01025438  1.22772762
               1.48234092  1.78043706  2.12944203  2.53805004
               3.01644009  3.57652955  4.23227104  5.00000000


     -----------------------------------------------
     Non-local corr. energy    =      12.32057140 Ry
     -----------------------------------------------

     Starting wfc are random

     total cpu time spent up to now is        5.5 secs

     Self-consistent Calculation

     iteration #  1     ecut=    85.00 Ry     beta= 0.70
     Davidson diagonalization with overlap
     ethr =  1.00E-02,  avg # of iterations = 11.0


     -----------------------------------------------
     Non-local corr. energy    =      15.64528974 Ry
     -----------------------------------------------


     total cpu time spent up to now is       55.7 secs

     total energy              =   -4933.15957616 Ry
     Harris-Foulkes estimate   =   -4977.00286515 Ry
     estimated scf accuracy    <      67.34306968 Ry

     total magnetization       =     2.00 Bohr mag/cell
     absolute magnetization    =     2.46 Bohr mag/cell

     iteration #  2     ecut=    85.00 Ry     beta= 0.70
     Davidson diagonalization with overlap
     ethr =  4.37E-03,  avg # of iterations =  6.0


     -----------------------------------------------
     Non-local corr. energy    =      14.91924673 Ry
     -----------------------------------------------


     total cpu time spent up to now is       75.6 secs

     total energy              =   -4948.69144119 Ry
     Harris-Foulkes estimate   =   -4963.36009621 Ry
     estimated scf accuracy    <      27.77922120 Ry

     total magnetization       =     2.00 Bohr mag/cell
     absolute magnetization    =     2.44 Bohr mag/cell

     iteration #  3     ecut=    85.00 Ry     beta= 0.70
     Davidson diagonalization with overlap
     ethr =  1.80E-03,  avg # of iterations =  5.0


     -----------------------------------------------
     Non-local corr. energy    =      15.18192129 Ry
     -----------------------------------------------


     total cpu time spent up to now is       93.1 secs

     total energy              =   -4954.38329038 Ry
     Harris-Foulkes estimate   =   -4954.68903767 Ry
     estimated scf accuracy    <       0.59717961 Ry

     total magnetization       =     2.00 Bohr mag/cell
     absolute magnetization    =     2.29 Bohr mag/cell

     iteration #  4     ecut=    85.00 Ry     beta= 0.70
     Davidson diagonalization with overlap
     ethr =  3.88E-05,  avg # of iterations = 14.0


     -----------------------------------------------
     Non-local corr. energy    =      15.20390530 Ry
     -----------------------------------------------


     total cpu time spent up to now is      132.1 secs

     total energy              =   -4954.50732882 Ry
     Harris-Foulkes estimate   =   -4955.08116644 Ry
     estimated scf accuracy    <       1.52650213 Ry

     total magnetization       =     2.00 Bohr mag/cell
     absolute magnetization    =     2.16 Bohr mag/cell

     iteration #  5     ecut=    85.00 Ry     beta= 0.70
     Davidson diagonalization with overlap
     ethr =  3.88E-05,  avg # of iterations =  9.5


     -----------------------------------------------
     Non-local corr. energy    =      15.19581878 Ry
     -----------------------------------------------


     total cpu time spent up to now is      152.8 secs

     total energy              =   -4954.76953640 Ry
     Harris-Foulkes estimate   =   -4954.79942695 Ry
     estimated scf accuracy    <       0.08802273 Ry

     total magnetization       =     2.00 Bohr mag/cell
     absolute magnetization    =     2.17 Bohr mag/cell

     iteration #  6     ecut=    85.00 Ry     beta= 0.70
     Davidson diagonalization with overlap
     ethr =  5.72E-06,  avg # of iterations = 10.5


     -----------------------------------------------
     Non-local corr. energy    =      15.18498804 Ry
     -----------------------------------------------


     total cpu time spent up to now is      170.3 secs

     total energy              =   -4954.77411088 Ry
     Harris-Foulkes estimate   =   -4954.78186233 Ry
     estimated scf accuracy    <       0.01778411 Ry

     total magnetization       =     2.00 Bohr mag/cell
     absolute magnetization    =     2.16 Bohr mag/cell

     iteration #  7     ecut=    85.00 Ry     beta= 0.70
     Davidson diagonalization with overlap
     ethr =  1.15E-06,  avg # of iterations =  8.5


     -----------------------------------------------
     Non-local corr. energy    =      15.19297157 Ry
     -----------------------------------------------


     total cpu time spent up to now is      198.0 secs

     total energy              =   -4954.77975966 Ry
     Harris-Foulkes estimate   =   -4954.78444248 Ry
     estimated scf accuracy    <       0.01293970 Ry

     total magnetization       =     2.00 Bohr mag/cell
     absolute magnetization    =     2.15 Bohr mag/cell

     iteration #  8     ecut=    85.00 Ry     beta= 0.70
     Davidson diagonalization with overlap
     ethr =  8.40E-07,  avg # of iterations =  9.0


     -----------------------------------------------
     Non-local corr. energy    =      15.19655387 Ry
     -----------------------------------------------


     total cpu time spent up to now is      214.9 secs

     total energy              =   -4954.77999874 Ry
     Harris-Foulkes estimate   =   -4954.78143419 Ry
     estimated scf accuracy    <       0.00348502 Ry

     total magnetization       =     2.00 Bohr mag/cell
     absolute magnetization    =     2.15 Bohr mag/cell

     iteration #  9     ecut=    85.00 Ry     beta= 0.70
     Davidson diagonalization with overlap
     ethr =  2.26E-07,  avg # of iterations = 11.0


     -----------------------------------------------
     Non-local corr. energy    =      15.19690181 Ry
     -----------------------------------------------


     total cpu time spent up to now is      236.3 secs

     total energy              =   -4954.78050918 Ry
     Harris-Foulkes estimate   =   -4954.78057954 Ry
     estimated scf accuracy    <       0.00016106 Ry

     total magnetization       =     2.00 Bohr mag/cell
     absolute magnetization    =     2.15 Bohr mag/cell

     iteration # 10     ecut=    85.00 Ry     beta= 0.70
     Davidson diagonalization with overlap
     ethr =  1.05E-08,  avg # of iterations = 10.0


     -----------------------------------------------
     Non-local corr. energy    =      15.19666531 Ry
     -----------------------------------------------


     total cpu time spent up to now is      265.4 secs

     total energy              =   -4954.78057895 Ry
     Harris-Foulkes estimate   =   -4954.78058139 Ry
     estimated scf accuracy    <       0.00001628 Ry

     total magnetization       =     2.00 Bohr mag/cell
     absolute magnetization    =     2.15 Bohr mag/cell

     iteration # 11     ecut=    85.00 Ry     beta= 0.70
     Davidson diagonalization with overlap
     ethr =  1.06E-09,  avg # of iterations = 12.5


     -----------------------------------------------
     Non-local corr. energy    =      15.19670902 Ry
     -----------------------------------------------


     total cpu time spent up to now is      290.6 secs

     total energy              =   -4954.78058240 Ry
     Harris-Foulkes estimate   =   -4954.78058413 Ry
     estimated scf accuracy    <       0.00000565 Ry

     total magnetization       =     2.00 Bohr mag/cell
     absolute magnetization    =     2.15 Bohr mag/cell

     iteration # 12     ecut=    85.00 Ry     beta= 0.70
     Davidson diagonalization with overlap
     ethr =  3.67E-10,  avg # of iterations =  9.0


     -----------------------------------------------
     Non-local corr. energy    =      15.19670072 Ry
     -----------------------------------------------


     total cpu time spent up to now is      310.3 secs

     total energy              =   -4954.78058381 Ry
     Harris-Foulkes estimate   =   -4954.78058378 Ry
     estimated scf accuracy    <       0.00000096 Ry

     total magnetization       =     2.00 Bohr mag/cell
     absolute magnetization    =     2.15 Bohr mag/cell

     iteration # 13     ecut=    85.00 Ry     beta= 0.70
     Davidson diagonalization with overlap
     ethr =  6.24E-11,  avg # of iterations = 10.5


     -----------------------------------------------
     Non-local corr. energy    =      15.19668104 Ry
     -----------------------------------------------


     total cpu time spent up to now is      335.0 secs

     total energy              =   -4954.78058421 Ry
     Harris-Foulkes estimate   =   -4954.78058424 Ry
     estimated scf accuracy    <       0.00000039 Ry

     total magnetization       =     2.00 Bohr mag/cell
     absolute magnetization    =     2.15 Bohr mag/cell

     iteration # 14     ecut=    85.00 Ry     beta= 0.70
     Davidson diagonalization with overlap
     ethr =  2.56E-11,  avg # of iterations = 11.0


     -----------------------------------------------
     Non-local corr. energy    =      15.19667076 Ry
     -----------------------------------------------


     total cpu time spent up to now is      357.4 secs

     total energy              =   -4954.78058433 Ry
     Harris-Foulkes estimate   =   -4954.78058435 Ry
     estimated scf accuracy    <       0.00000009 Ry

     total magnetization       =     2.00 Bohr mag/cell
     absolute magnetization    =     2.15 Bohr mag/cell

     iteration # 15     ecut=    85.00 Ry     beta= 0.70
     Davidson diagonalization with overlap
     ethr =  5.82E-12,  avg # of iterations = 13.0


     -----------------------------------------------
     Non-local corr. energy    =      15.19666950 Ry
     -----------------------------------------------


     total cpu time spent up to now is      381.2 secs

     total energy              =   -4954.78058435 Ry
     Harris-Foulkes estimate   =   -4954.78058435 Ry
     estimated scf accuracy    <       0.00000002 Ry

     total magnetization       =     2.00 Bohr mag/cell
     absolute magnetization    =     2.15 Bohr mag/cell

     iteration # 16     ecut=    85.00 Ry     beta= 0.70
     Davidson diagonalization with overlap
     ethr =  1.26E-12,  avg # of iterations =  9.0


     -----------------------------------------------
     Non-local corr. energy    =      15.19666528 Ry
     -----------------------------------------------

 
     Magnetic moment per site:
     atom:    1    charge:    0.8377    magn:    0.0000    constr:    0.0000
     atom:    2    charge:    0.8377    magn:    0.0000    constr:    0.0000
     atom:    3    charge:    0.8378    magn:    0.0000    constr:    0.0000
     atom:    4    charge:    0.8378    magn:    0.0000    constr:    0.0000
     atom:    5    charge:    0.8378    magn:    0.0000    constr:    0.0000
     atom:    6    charge:    0.8378    magn:    0.0000    constr:    0.0000
     atom:    7    charge:    0.8378    magn:    0.0000    constr:    0.0000
     atom:    8    charge:    0.8377    magn:   -0.0000    constr:    0.0000
     atom:    9    charge:    0.8416    magn:   -0.0000    constr:    0.0000
     atom:   10    charge:    0.8421    magn:   -0.0000    constr:    0.0000
     atom:   11    charge:    0.8396    magn:    0.0001    constr:    0.0000
     atom:   12    charge:    0.8392    magn:   -0.0000    constr:    0.0000
     atom:   13    charge:    0.8377    magn:    0.0000    constr:    0.0000
     atom:   14    charge:    0.8377    magn:    0.0000    constr:    0.0000
     atom:   15    charge:    0.8378    magn:    0.0000    constr:    0.0000
     atom:   16    charge:    0.8378    magn:    0.0000    constr:    0.0000
     atom:   17    charge:    0.8378    magn:    0.0000    constr:    0.0000
[...]
B        0.458333725   0.374999994   0.416645816    0   0   0
B        0.333333701   0.249999985   0.416645820    0   0   0
B        0.291184809   0.375009328   0.583855304
B        0.416225726   0.250037358   0.583809676
B        0.457600037   0.374112300   0.749654666
B        0.333184490   0.249709934   0.750091134
B        0.291083802   0.374993276   0.917233214
B        0.416227161   0.250111644   0.917685716
B        0.459003911   0.624981380   0.082798066
B        0.333980658   0.500000000   0.083014744
B        0.291666258   0.625000012   0.250021161    0   0   0
B        0.416666269   0.500000000   0.250021164    0   0   0
B        0.458333725   0.625000006   0.416645816    0   0   0
B        0.333333704   0.500000000   0.416645818    0   0   0
B        0.291184809   0.624990672   0.583855304
B        0.416211988   0.500000000   0.583615304
B        0.457600037   0.625887700   0.749654666
B        0.333365164   0.500000000   0.750091203
B        0.291083802   0.625006724   0.917233214
B        0.416102067   0.500000000   0.918363533
B        0.458940072   0.874985058   0.083034255
B        0.333957898   0.749990401   0.083046043
B        0.291666255   0.875000009   0.250021165    0   0   0
B        0.416666257   0.750000019   0.250021165    0   0   0
B        0.458333736   0.875000019   0.416645820    0   0   0
B        0.333333701   0.750000015   0.416645820    0   0   0
B        0.291197370   0.874991949   0.583925621
B        0.416225726   0.749962642   0.583809676
B        0.458272359   0.875194150   0.750079848
B        0.333184490   0.750290066   0.750091134
B        0.291192311   0.875021239   0.917109637
B        0.416227161   0.749888356   0.917685716
B        0.708780741   0.125092420   0.083184126
B        0.583865742   0.000000000   0.083124392
B        0.541666268   0.124999987   0.250021164    0   0   0
B        0.666666307   0.000000000   0.250021156    0   0   0
B        0.708333761   0.124999991   0.416645829    0   0   0
B        0.583333741   0.000000000   0.416645824    0   0   0
B        0.541245953   0.125044574   0.583819925
B        0.666227808   0.000000000   0.583858315
B        0.708705617   0.123835822   0.750588936
B        0.583460480   0.000000000   0.750483263
B        0.541566631   0.125541292   0.916934211
B        0.666432456   0.000000000   0.919287834
B        0.708760387   0.375186343   0.082153642
B        0.583902899   0.250090911   0.082707601
B        0.541666277   0.374999991   0.250021161    0   0   0
B        0.666666304   0.249999988   0.250021156    0   0   0
B        0.708333757   0.374999994   0.416645821    0   0   0
B        0.583333748   0.249999980   0.416645819    0   0   0
B        0.541237388   0.375073525   0.583160653
B        0.666212113   0.250069686   0.583255698
B        0.710490952   0.369644571   0.745796919
B        0.583293223   0.249424141   0.748711543
B        0.541322640   0.376292357   0.917662105
B        0.666834814   0.250796555   0.918013268
B        0.708760387   0.624813657   0.082153642
B        0.584003292   0.500000000   0.082027153
B        0.541666277   0.625000009   0.250021161    0   0   0
B        0.666666304   0.500000000   0.250021156    0   0   0
B        0.708333757   0.625000006   0.416645821    0   0   0
B        0.583333738   0.500000000   0.416645816    0   0   0
B        0.541237388   0.624926475   0.583160653
B        0.666173379   0.500000000   0.582673140
B        0.710490952   0.630355429   0.745796919
B        0.580116442   0.500000000   0.746474261
B        0.541322640   0.623707643   0.917662105
B        0.666131399   0.500000000   0.895104939
B        0.708780741   0.874907580   0.083184126
B        0.583902899   0.749909089   0.082707601
B        0.541666268   0.875000013   0.250021164    0   0   0
B        0.666666304   0.750000012   0.250021156    0   0   0
B        0.708333761   0.875000009   0.416645829    0   0   0
B        0.583333748   0.750000020   0.416645819    0   0   0
B        0.541245953   0.874955426   0.583819925
B        0.666212113   0.749930314   0.583255698
B        0.708705617   0.876164178   0.750588936
B        0.583293223   0.750575859   0.748711543
B        0.541566631   0.874458708   0.916934211
B        0.666834814   0.749203445   0.918013268
B        0.958791658   0.125027075   0.083279867
B        0.833757560   0.000000000   0.083525182
B        0.791666310   0.124999992   0.250021153    0   0   0
B        0.916666295   0.000000000   0.250021162    0   0   0
B        0.958333726   0.124999979   0.416645818    0   0   0
B        0.833333760   0.000000000   0.416645837    0   0   0
B        0.791166465   0.125006725   0.583836812
B        0.916135728   0.000000000   0.584086594
B        0.959197076   0.124711733   0.750871669
B        0.834007859   0.000000000   0.751408919
B        0.791261791   0.124942563   0.919463017
B        0.916194991   0.000000000   0.918089337
B        0.958797836   0.375029021   0.082975297
B        0.833749508   0.250104782   0.083063937
B        0.791666315   0.374999991   0.250021158    0   0   0
B        0.916666295   0.249999973   0.250021160    0   0   0
B        0.958333718   0.374999977   0.416645816    0   0   0
B        0.833333757   0.249999977   0.416645830    0   0   0
B        0.791100433   0.375011181   0.583216302
B        0.916110448   0.250003861   0.583936470
B        0.959062731   0.374884558   0.750277143
B        0.834721128   0.249139183   0.750343992
B        0.790436113   0.374514205   0.917731932
B        0.916035746   0.249908668   0.918105443
B        0.958797836   0.624970979   0.082975297
B        0.833740272   0.500000000   0.082655392
B        0.791666315   0.625000009   0.250021158    0   0   0
B        0.916666298   0.500000000   0.250021159    0   0   0
B        0.958333718   0.625000023   0.416645816    0   0   0
B        0.833333758   0.500000000   0.416645824    0   0   0
B        0.791100433   0.624988819   0.583216302
B        0.916083883   0.500000000   0.583785914
B        0.959062731   0.625115442   0.750277143
B        0.834231062   0.500000000   0.748741923
B        0.790436113   0.625485795   0.917731932
B        0.915568368   0.500000000   0.916743966
B        0.958791658   0.874972925   0.083279867
B        0.833749508   0.749895218   0.083063937
B        0.791666310   0.875000008   0.250021153    0   0   0
B        0.916666295   0.750000027   0.250021160    0   0   0
B        0.958333726   0.875000021   0.416645818    0   0   0
B        0.833333757   0.750000023   0.416645830    0   0   0
B        0.791166465   0.874993275   0.583836812
B        0.916110448   0.749996139   0.583936470
B        0.959197076   0.875288267   0.750871669
B        0.834721128   0.750860817   0.750343992
B        0.791261791   0.875057437   0.919463017
B        0.916035746   0.750091332   0.918105443
N        0.208266342   0.125000008   0.250044847    0   0   0
N        0.083266387   0.000000000   0.250044881    0   0   0
N        0.042277734   0.125003664   0.083272662
N        0.167275647   0.000000000   0.083122332
N        0.207768966   0.125000892   0.583793796
N        0.082774752   0.000000000   0.583874736
N        0.041733659   0.124999985   0.416622106    0   0   0
N        0.166733642   0.000000000   0.416622112    0   0   0
N        0.207709552   0.124994718   0.917103397
N        0.082838119   0.000000000   0.917160986
N        0.042526720   0.124871341   0.750321064
N        0.167123695   0.000000000   0.749930453
N        0.208266332   0.375000000   0.250044851    0   0   0
N        0.083266391   0.249999993   0.250044862    0   0   0
N        0.042290170   0.375004350   0.083124287
N        0.167282715   0.250004013   0.083106411
N        0.207756168   0.375000211   0.583741316
N        0.082767091   0.250004365   0.583829564
N        0.041733677   0.374999984   0.416622107    0   0   0
N        0.166733643   0.249999991   0.416622112    0   0   0
N        0.207611705   0.374998452   0.916942541
N        0.082754318   0.250023857   0.917116903
N        0.042445337   0.374974130   0.750025856
N        0.167113570   0.249970924   0.749879492
N        0.208266332   0.625000000   0.250044851    0   0   0
N        0.083266392   0.500000000   0.250044859    0   0   0
N        0.042290170   0.624995650   0.083124287
N        0.167290159   0.500000000   0.083093854
N        0.207756168   0.624999789   0.583741316
N        0.082759725   0.500000000   0.583777432
N        0.041733677   0.625000016   0.416622107    0   0   0
N        0.166733638   0.500000000   0.416622115    0   0   0
N        0.207611705   0.625001548   0.916942541
N        0.082697297   0.500000000   0.916880689
N        0.042445337   0.625025870   0.750025856
N        0.167108669   0.500000000   0.749822626
N        0.208266342   0.874999992   0.250044847    0   0   0
N        0.083266391   0.750000007   0.250044862    0   0   0
N        0.042277734   0.874996336   0.083272662
N        0.167282715   0.749995987   0.083106411
N        0.207768966   0.874999108   0.583793796
N        0.082767091   0.749995635   0.583829564
N        0.041733659   0.875000015   0.416622106    0   0   0
N        0.166733643   0.750000009   0.416622112    0   0   0
N        0.207709552   0.875005282   0.917103397
N        0.082754318   0.749976143   0.917116903
N        0.042526720   0.875128659   0.750321064
N        0.167113570   0.750029076   0.749879492
N        0.458266378   0.125000005   0.250044863    0   0   0
N        0.333266370   0.000000000   0.250044867    0   0   0
N        0.292268203   0.125001594   0.083194917
N        0.417247452   0.000000000   0.083286399
N        0.457784219   0.125005354   0.583740048
N        0.332777298   0.000000000   0.583806170
N        0.291733627   0.125000014   0.416622136    0   0   0
N        0.416733665   0.000000000   0.416622118    0   0   0
N        0.457751124   0.125003754   0.917113156
N        0.332738475   0.000000000   0.917161726
N        0.291702863   0.124803020   0.749912514
N        0.416598433   0.000000000   0.749963993
N        0.458266377   0.375000027   0.250044864    0   0   0
N        0.333266366   0.250000003   0.250044874    0   0   0
N        0.292279834   0.375001435   0.083194946
N        0.417259741   0.249988976   0.083250249
N        0.457753452   0.375008376   0.583332939
N        0.332764135   0.250002793   0.583738965
N        0.291733646   0.374999986   0.416622131    0   0   0
N        0.416733654   0.250000002   0.416622121    0   0   0
N        0.457267841   0.374860787   0.918793100
N        0.332565881   0.249935778   0.917333103
N        0.291744780   0.374903666   0.749899065
N        0.416138639   0.249238677   0.749852227
N        0.458266377   0.624999973   0.250044864    0   0   0
N        0.333266374   0.500000000   0.250044874    0   0   0
N        0.292279834   0.624998565   0.083194946
N        0.417270600   0.500000000   0.083177369
N        0.457753452   0.624991624   0.583332939
N        0.332746198   0.500000000   0.583639044
N        0.291733646   0.625000014   0.416622131    0   0   0
N        0.416733666   0.500000000   0.416622117    0   0   0
N        0.457267841   0.625139213   0.918793100
N        0.332432121   0.500000000   0.917633979
N        0.291744780   0.625096334   0.749899065
N        0.416307812   0.500000000   0.749762005
N        0.458266378   0.874999995   0.250044863    0   0   0
N        0.333266366   0.749999997   0.250044874    0   0   0
N        0.292268203   0.874998406   0.083194917
N        0.417259741   0.750011024   0.083250249
N        0.457784219   0.874994646   0.583740048
N        0.332764135   0.749997207   0.583738965
N        0.291733627   0.874999986   0.416622136    0   0   0
N        0.416733654   0.749999998   0.416622121    0   0   0
N        0.457751124   0.874996246   0.917113156
N        0.332565881   0.750064222   0.917333103
N        0.291702863   0.875196980   0.749912514
N        0.416138639   0.750761323   0.749852227
N        0.708266388   0.124999997   0.250044835    0   0   0
N        0.583266356   0.000000000   0.250044858    0   0   0
N        0.542237361   0.124989565   0.083277228
N        0.667229894   0.000000000   0.083681968
N        0.707807885   0.124985247   0.583498775
N        0.582798323   0.000000000   0.583733747
N        0.541733625   0.124999996   0.416622121    0   0   0
N        0.666733652   0.000000000   0.416622111    0   0   0
N        0.708018719   0.124518505   0.920091526
N        0.582829460   0.000000000   0.917683385
N        0.541540855   0.124567448   0.749750969
N        0.666926275   0.000000000   0.751055396
N        0.708266364   0.374999988   0.250044842    0   0   0
N        0.583266356   0.250000006   0.250044855    0   0   0
N        0.542251377   0.374973766   0.082880176
N        0.667231649   0.249993426   0.083098225
N        0.707789592   0.374956193   0.582203483
N        0.582784041   0.250005624   0.583197251
N        0.541733631   0.375000029   0.416622116    0   0   0
N        0.666733649   0.250000004   0.416622103    0   0   0
N        0.708430921   0.373166104   0.917004087
N        0.582789178   0.250071838   0.916416076
N        0.540079610   0.373107139   0.748054245
N        0.666958072   0.246763579   0.748053253
N        0.708266364   0.625000012   0.250044842    0   0   0
N        0.583266346   0.500000000   0.250044852    0   0   0
N        0.542251377   0.625026234   0.082880176
N        0.667248736   0.500000000   0.082897570
N        0.707789592   0.625043807   0.582203483
N        0.582740411   0.500000000   0.582131446
N        0.541733631   0.624999971   0.416622116    0   0   0
N        0.666733646   0.500000000   0.416622098    0   0   0
N        0.708430921   0.626833896   0.917004087
N        0.581478493   0.500000000   0.917222759
N        0.540079610   0.626892861   0.748054245
N        0.708266388   0.875000003   0.250044835    0   0   0
N        0.583266356   0.749999994   0.250044855    0   0   0
N        0.542237361   0.875010435   0.083277228
N        0.667231649   0.750006574   0.083098225
N        0.707807885   0.875014753   0.583498775
N        0.582784041   0.749994376   0.583197251
N        0.541733625   0.875000004   0.416622121    0   0   0
N        0.666733649   0.749999996   0.416622103    0   0   0
N        0.708018719   0.875481495   0.920091526
N        0.582789178   0.749928162   0.916416076
N        0.541540855   0.875432552   0.749750969
N        0.666958072   0.753236421   0.748053253
N        0.958266347   0.124999972   0.250044866    0   0   0
N        0.833266371   0.000000000   0.250044859    0   0   0
N        0.792252964   0.125005244   0.083716045
N        0.917267335   0.000000000   0.083665150
N        0.957785449   0.125002481   0.583918374
N        0.832806604   0.000000000   0.583835804
N        0.791733669   0.125000000   0.416622143    0   0   0
N        0.916733627   0.000000000   0.416622114    0   0   0
N        0.957983721   0.124931931   0.917785011
N        0.833122610   0.000000000   0.918896625
N        0.792535756   0.124536471   0.750910456
N        0.917597875   0.000000000   0.751060757
N        0.958266347   0.374999988   0.250044864    0   0   0
N        0.833266364   0.249999982   0.250044854    0   0   0
N        0.792267495   0.375014706   0.082989043
N        0.917276281   0.250011750   0.083399650
N        0.957767213   0.375003979   0.583760579
N        0.832787522   0.249983984   0.583496767
N        0.791733667   0.374999996   0.416622130    0   0   0
N        0.916733624   0.249999969   0.416622111    0   0   0
N        0.957787139   0.375001537   0.917225993
N        0.833144488   0.249516907   0.919427391
N        0.794007696   0.373337915   0.748192185
N        0.918043092   0.249464279   0.750516271
N        0.958266347   0.625000012   0.250044864    0   0   0
N        0.833266368   0.500000000   0.250044856    0   0   0
N        0.792267495   0.624985294   0.082989043
N        0.917283567   0.500000000   0.083102131
N        0.957767213   0.624996021   0.583760579
N        0.832767207   0.500000000   0.583159683
N        0.791733667   0.625000004   0.416622130    0   0   0
N        0.916733625   0.500000000   0.416622110    0   0   0
N        0.957787139   0.624998463   0.917225993
N        0.832753896   0.500000000   0.916200227
N        0.794007696   0.626662085   0.748192185
N        0.917740160   0.500000000   0.749740223
N        0.958266347   0.875000028   0.250044866    0   0   0
N        0.833266364   0.750000018   0.250044854    0   0   0
N        0.792252964   0.874994756   0.083716045
N        0.917276281   0.749988250   0.083399650
N        0.957785449   0.874997519   0.583918374
N        0.832787522   0.750016016   0.583496767
N        0.791733669   0.875000000   0.416622143    0   0   0
N        0.916733624   0.750000031   0.416622111    0   0   0
N        0.957983721   0.875068069   0.917785011
N        0.833144488   0.750483093   0.919427391
N        0.792535756   0.875463529   0.750910456
N        0.918043092   0.750535721   0.750516271
C        0.667204895   0.500000000   0.736478563
C        0.665539590   0.500000000   0.811505985
End final coordinates



     Writing output data file h-BN_Double_C.save
 
     init_run     :      5.05s CPU      5.21s WALL (       1 calls)
     electrons    :    387.35s CPU    396.24s WALL (       1 calls)
     forces       :      2.10s CPU      2.17s WALL (       1 calls)

     Called by init_run:
     wfcinit      :      3.09s CPU      3.19s WALL (       1 calls)
     wfcinit:atom :      0.00s CPU      0.00s WALL (       2 calls)
     wfcinit:wfcr :      2.99s CPU      3.06s WALL (       2 calls)
     potinit      :      0.38s CPU      0.40s WALL (       1 calls)

     Called by electrons:
     c_bands      :    366.78s CPU    375.15s WALL (      16 calls)
     sum_band     :     14.98s CPU     15.11s WALL (      16 calls)
     v_of_rho     :      5.58s CPU      5.83s WALL (      17 calls)
     v_h          :      0.06s CPU      0.06s WALL (      17 calls)
     v_xc         :      5.52s CPU      5.77s WALL (      17 calls)
     mix_rho      :      0.17s CPU      0.18s WALL (      16 calls)

     Called by c_bands:
     init_us_2    :      1.37s CPU      1.39s WALL (      68 calls)
     regterg      :    363.70s CPU    371.80s WALL (      32 calls)

     Called by sum_band:

     Called by *egterg:
     h_psi        :    142.20s CPU    143.82s WALL (     353 calls)
     g_psi        :      0.34s CPU      0.34s WALL (     319 calls)
     rdiaghg      :    169.79s CPU    174.93s WALL (     351 calls)
     regterg:over :     22.56s CPU     22.70s WALL (     319 calls)
     regterg:upda :     20.63s CPU     20.80s WALL (     319 calls)
     regterg:last :      7.15s CPU      7.28s WALL (      36 calls)
     rdiaghg:chol :      4.82s CPU      4.87s WALL (     351 calls)
     rdiaghg:inve :      5.87s CPU      5.92s WALL (     351 calls)
     rdiaghg:para :     10.46s CPU     11.51s WALL (     702 calls)

     Called by h_psi:
     h_psi:pot    :    141.32s CPU    142.93s WALL (     353 calls)
     h_psi:calbec :     23.52s CPU     24.04s WALL (     353 calls)
     vloc_psi     :     96.35s CPU     97.18s WALL (     353 calls)
     add_vuspsi   :     21.44s CPU     21.70s WALL (     353 calls)

     General routines
     calbec       :     25.09s CPU     25.64s WALL (     361 calls)
     fft          :      3.74s CPU      3.78s WALL (    1444 calls)
     fftw         :    102.35s CPU    103.22s WALL (   99064 calls)
     davcio       :      0.00s CPU      0.01s WALL (       2 calls)
 
     Parallel routines
     fft_scatt_xy :      5.50s CPU      5.57s WALL (  100508 calls)
     fft_scatt_yz :     61.74s CPU     62.30s WALL (  100508 calls)
 
     PWSCF        :  6m36.63s CPU     6m52.26s WALL

 
   This run was terminated on:  14: 4:30   2Sep2019            

=------------------------------------------------------------------------------=
   JOB DONE.
=------------------------------------------------------------------------------=
